 Entering Link 1 = D:\GMK\G03W(C02)\l1.exe PID=      7192.
  
 Copyright (c) 1988,1990,1992,1993,1995,1998,2003,2004, Gaussian, Inc.
                  All Rights Reserved.
  
 This is the Gaussian(R) 03 program.  It is based on the
 the Gaussian(R) 98 system (copyright 1998, Gaussian, Inc.),
 the Gaussian(R) 94 system (copyright 1995, Gaussian, Inc.),
 the Gaussian 92(TM) system (copyright 1992, Gaussian, Inc.),
 the Gaussian 90(TM) system (copyright 1990, Gaussian, Inc.),
 the Gaussian 88(TM) system (copyright 1988, Gaussian, Inc.),
 the Gaussian 86(TM) system (copyright 1986, Carnegie Mellon
 University), and the Gaussian 82(TM) system (copyright 1983,
 Carnegie Mellon University). Gaussian is a federally registered
 trademark of Gaussian, Inc.
  
 This software contains proprietary and confidential information,
 including trade secrets, belonging to Gaussian, Inc.
  
 This software is provided under written license and may be
 used, copied, transmitted, or stored only in accord with that
 written license.
  
 The following legend is applicable only to US Government
 contracts under FAR:
  
                    RESTRICTED RIGHTS LEGEND
  
 Use, reproduction and disclosure by the US Government is
 subject to restrictions as set forth in subparagraphs (a)
 and (c) of the Commercial Computer Software - Restricted
 Rights clause in FAR 52.227-19.
  
 Gaussian, Inc.
 340 Quinnipiac St., Bldg. 40, Wallingford CT 06492
  
  
 ---------------------------------------------------------------
 Warning -- This program may not be used in any manner that
 competes with the business of Gaussian, Inc. or will provide
 assistance to any competitor of Gaussian, Inc.  The licensee
 of this program is prohibited from giving any competitor of
 Gaussian, Inc. access to this program.  By using this program,
 the user acknowledges that Gaussian, Inc. is engaged in the
 business of creating and licensing software in the field of
 computational chemistry and represents and warrants to the
 licensee that it is not a competitor of Gaussian, Inc. and that
 it will not use this program in any manner prohibited above.
 ---------------------------------------------------------------
  

 Cite this work as:
 Gaussian 03, Revision C.02,
 M. J. Frisch, G. W. Trucks, H. B. Schlegel, G. E. Scuseria, 
 M. A. Robb, J. R. Cheeseman, J. A. Montgomery, Jr., T. Vreven, 
 K. N. Kudin, J. C. Burant, J. M. Millam, S. S. Iyengar, J. Tomasi, 
 V. Barone, B. Mennucci, M. Cossi, G. Scalmani, N. Rega, 
 G. A. Petersson, H. Nakatsuji, M. Hada, M. Ehara, K. Toyota, 
 R. Fukuda, J. Hasegawa, M. Ishida, T. Nakajima, Y. Honda, O. Kitao, 
 H. Nakai, M. Klene, X. Li, J. E. Knox, H. P. Hratchian, J. B. Cross, 
 C. Adamo, J. Jaramillo, R. Gomperts, R. E. Stratmann, O. Yazyev, 
 A. J. Austin, R. Cammi, C. Pomelli, J. W. Ochterski, P. Y. Ayala, 
 K. Morokuma, G. A. Voth, P. Salvador, J. J. Dannenberg, 
 V. G. Zakrzewski, S. Dapprich, A. D. Daniels, M. C. Strain, 
 O. Farkas, D. K. Malick, A. D. Rabuck, K. Raghavachari, 
 J. B. Foresman, J. V. Ortiz, Q. Cui, A. G. Baboul, S. Clifford, 
 J. Cioslowski, B. B. Stefanov, G. Liu, A. Liashenko, P. Piskorz, 
 I. Komaromi, R. L. Martin, D. J. Fox, T. Keith, M. A. Al-Laham, 
 C. Y. Peng, A. Nanayakkara, M. Challacombe, P. M. W. Gill, 
 B. Johnson, W. Chen, M. W. Wong, C. Gonzalez, and J. A. Pople, 
 Gaussian, Inc., Wallingford CT, 2004.
 
 ******************************************
 Gaussian 03:  IA32W-G03RevC.02 12-Jun-2004
                17-Sep-2017 
 ******************************************
 %chk=phenol-test
 %mem=300mb
 ------------------------------------
 #p B3LYP/6-31G** SCF=direct opt freq
 ------------------------------------
 1/14=-1,18=20,26=3,38=1/1,3;
 2/9=110,17=6,18=5,40=1/2;
 3/5=1,6=6,7=101,11=2,16=1,25=1,30=1,74=-5/1,2,3;
 4//1;
 5/5=2,38=5/2;
 6/7=2,8=2,9=2,10=2,28=1/1;
 7//1,2,3,16;
 1/14=-1,18=20/3(1);
 99//99;
 2/9=110/2;
 3/5=1,6=6,7=101,11=2,16=1,25=1,30=1,74=-5/1,2,3;
 4/5=5,16=3/1;
 5/5=2,38=5/2;
 7//1,2,3,16;
 1/14=-1,18=20/3(-5);
 2/9=110/2;
 6/7=2,8=2,9=2,10=2,19=2,28=1/1;
 99/9=1/99;
 Leave Link    1 at Sun Sep 17 16:56:59 2017, MaxMem=   39321600 cpu:       0.0
 (Enter D:\GMK\G03W(C02)\l101.exe)
 --------------------
 phenol B3LYP/6-31G**
 --------------------
 Symbolic Z-matrix:
 Charge =  0 Multiplicity = 1
 6                    -0.36863  -0.37431  -0.78685 
 6                    -1.08745  -1.34674  -0.08869 
 6                     0.35018   0.59811  -0.08869 
 1                    -1.64669  -2.10328  -0.63186 
 1                     0.90942   1.35466  -0.63186 
 6                    -1.08745  -1.34674   1.30764 
 6                     0.35018   0.59811   1.30764 
 1                    -1.64669  -2.10328   1.85081 
 1                     0.90942   1.35466   1.85081 
 6                    -0.36863  -0.37431   2.0058 
 1                    -0.36863  -0.37431   3.09215 
 8                    -0.36863  -0.37431  -2.22685 
 1                     0.17438   0.36028  -2.54137 
 
                    Isotopes and Nuclear Properties:

  Atom         1           2           3           4           5           6           7           8           9          10
 IAtWgt=          12          12          12           1           1          12          12           1           1          12
 AtmWgt=  12.0000000  12.0000000  12.0000000   1.0078250   1.0078250  12.0000000  12.0000000   1.0078250   1.0078250  12.0000000
 IAtSpn=           0           0           0           1           1           0           0           1           1           0
 AtZEff=   0.0000000   0.0000000   0.0000000   0.0000000   0.0000000   0.0000000   0.0000000   0.0000000   0.0000000   0.0000000
 AtQMom=   0.0000000   0.0000000   0.0000000   0.0000000   0.0000000   0.0000000   0.0000000   0.0000000   0.0000000   0.0000000
 AtGFac=   0.0000000   0.0000000   0.0000000   2.7928460   2.7928460   0.0000000   0.0000000   2.7928460   2.7928460   0.0000000

  Atom        11          12          13
 IAtWgt=           1          16           1
 AtmWgt=   1.0078250  15.9949146   1.0078250
 IAtSpn=           1           0           1
 AtZEff=   0.0000000   0.0000000   0.0000000
 AtQMom=   0.0000000   0.0000000   0.0000000
 AtGFac=   2.7928460   0.0000000   2.7928460
 Leave Link  101 at Sun Sep 17 16:56:59 2017, MaxMem=   39321600 cpu:       0.0
 (Enter D:\GMK\G03W(C02)\l103.exe)

 GradGradGradGradGradGradGradGradGradGradGradGradGradGradGradGradGradGrad
 Berny optimization.
 Initialization pass.
                           ----------------------------
                           !    Initial Parameters    !
                           ! (Angstroms and Degrees)  !
 --------------------------                            --------------------------
 ! Name  Definition              Value          Derivative Info.                !
 --------------------------------------------------------------------------------
 ! R1    R(1,2)                  1.3963         estimate D2E/DX2                !
 ! R2    R(1,3)                  1.3963         estimate D2E/DX2                !
 ! R3    R(1,12)                 1.44           estimate D2E/DX2                !
 ! R4    R(2,4)                  1.0863         estimate D2E/DX2                !
 ! R5    R(2,6)                  1.3963         estimate D2E/DX2                !
 ! R6    R(3,5)                  1.0863         estimate D2E/DX2                !
 ! R7    R(3,7)                  1.3963         estimate D2E/DX2                !
 ! R8    R(6,8)                  1.0863         estimate D2E/DX2                !
 ! R9    R(6,10)                 1.3963         estimate D2E/DX2                !
 ! R10   R(7,9)                  1.0863         estimate D2E/DX2                !
 ! R11   R(7,10)                 1.3963         estimate D2E/DX2                !
 ! R12   R(10,11)                1.0863         estimate D2E/DX2                !
 ! R13   R(12,13)                0.9661         estimate D2E/DX2                !
 ! A1    A(2,1,3)              120.0            estimate D2E/DX2                !
 ! A2    A(2,1,12)             120.0            estimate D2E/DX2                !
 ! A3    A(3,1,12)             120.0            estimate D2E/DX2                !
 ! A4    A(1,2,4)              120.0001         estimate D2E/DX2                !
 ! A5    A(1,2,6)              120.0            estimate D2E/DX2                !
 ! A6    A(4,2,6)              120.0            estimate D2E/DX2                !
 ! A7    A(1,3,5)              120.0001         estimate D2E/DX2                !
 ! A8    A(1,3,7)              120.0            estimate D2E/DX2                !
 ! A9    A(5,3,7)              120.0            estimate D2E/DX2                !
 ! A10   A(2,6,8)              120.0            estimate D2E/DX2                !
 ! A11   A(2,6,10)             120.0            estimate D2E/DX2                !
 ! A12   A(8,6,10)             120.0001         estimate D2E/DX2                !
 ! A13   A(3,7,9)              120.0            estimate D2E/DX2                !
 ! A14   A(3,7,10)             120.0            estimate D2E/DX2                !
 ! A15   A(9,7,10)             120.0001         estimate D2E/DX2                !
 ! A16   A(6,10,7)             120.0            estimate D2E/DX2                !
 ! A17   A(6,10,11)            120.0            estimate D2E/DX2                !
 ! A18   A(7,10,11)            120.0            estimate D2E/DX2                !
 ! A19   A(1,12,13)            108.9987         estimate D2E/DX2                !
 ! D1    D(3,1,2,4)            180.0            estimate D2E/DX2                !
 ! D2    D(3,1,2,6)              0.0            estimate D2E/DX2                !
 ! D3    D(12,1,2,4)             0.0            estimate D2E/DX2                !
 ! D4    D(12,1,2,6)           180.0            estimate D2E/DX2                !
 ! D5    D(2,1,3,5)            180.0            estimate D2E/DX2                !
 ! D6    D(2,1,3,7)              0.0            estimate D2E/DX2                !
 ! D7    D(12,1,3,5)             0.0            estimate D2E/DX2                !
 ! D8    D(12,1,3,7)           180.0            estimate D2E/DX2                !
 ! D9    D(2,1,12,13)          180.0            estimate D2E/DX2                !
 ! D10   D(3,1,12,13)            0.0            estimate D2E/DX2                !
 ! D11   D(1,2,6,8)            180.0            estimate D2E/DX2                !
 ! D12   D(1,2,6,10)             0.0            estimate D2E/DX2                !
 ! D13   D(4,2,6,8)              0.0            estimate D2E/DX2                !
 ! D14   D(4,2,6,10)          -180.0            estimate D2E/DX2                !
 ! D15   D(1,3,7,9)            180.0            estimate D2E/DX2                !
 ! D16   D(1,3,7,10)             0.0            estimate D2E/DX2                !
 ! D17   D(5,3,7,9)              0.0            estimate D2E/DX2                !
 ! D18   D(5,3,7,10)           180.0            estimate D2E/DX2                !
 ! D19   D(2,6,10,7)             0.0            estimate D2E/DX2                !
 ! D20   D(2,6,10,11)          180.0            estimate D2E/DX2                !
 ! D21   D(8,6,10,7)           180.0            estimate D2E/DX2                !
 ! D22   D(8,6,10,11)            0.0            estimate D2E/DX2                !
 ! D23   D(3,7,10,6)             0.0            estimate D2E/DX2                !
 ! D24   D(3,7,10,11)          180.0            estimate D2E/DX2                !
 ! D25   D(9,7,10,6)           180.0            estimate D2E/DX2                !
 ! D26   D(9,7,10,11)            0.0            estimate D2E/DX2                !
 --------------------------------------------------------------------------------
 Trust Radius=3.00D-01 FncErr=1.00D-07 GrdErr=1.00D-06
 Number of steps in this run=  68 maximum allowed number of steps= 100.
 GradGradGradGradGradGradGradGradGradGradGradGradGradGradGradGradGradGrad

 Leave Link  103 at Sun Sep 17 16:57:00 2017, MaxMem=   39321600 cpu:       0.0
 (Enter D:\GMK\G03W(C02)\l202.exe)
                          Input orientation:                          
 ---------------------------------------------------------------------
 Center     Atomic     Atomic              Coordinates (Angstroms)
 Number     Number      Type              X           Y           Z
 ---------------------------------------------------------------------
    1          6             0       -0.368634   -0.374313   -0.786855
    2          6             0       -1.087448   -1.346736   -0.088691
    3          6             0        0.350181    0.598110   -0.088691
    4          1             0       -1.646688   -2.103283   -0.631864
    5          1             0        0.909421    1.354658   -0.631864
    6          6             0       -1.087448   -1.346736    1.307639
    7          6             0        0.350181    0.598110    1.307639
    8          1             0       -1.646688   -2.103283    1.850812
    9          1             0        0.909421    1.354658    1.850812
   10          6             0       -0.368634   -0.374313    2.005803
   11          1             0       -0.368634   -0.374313    3.092150
   12          8             0       -0.368634   -0.374313   -2.226855
   13          1             0        0.174376    0.360279   -2.541374
 ---------------------------------------------------------------------
                    Distance matrix (angstroms):
                    1          2          3          4          5
     1  C    0.000000
     2  C    1.396328   0.000000
     3  C    1.396328   2.418512   0.000000
     4  H    2.155640   1.086348   3.402947   0.000000
     5  H    2.155640   3.402947   1.086348   4.300122   0.000000
     6  C    2.418513   1.396330   2.792658   2.155640   3.879005
     7  C    2.418513   2.792658   1.396330   3.879005   2.155640
     8  H    3.402947   2.155640   3.879005   2.482676   4.965353
     9  H    3.402947   3.879005   2.155640   4.965353   2.482676
    10  C    2.792658   2.418513   2.418513   3.402947   3.402947
    11  H    3.879005   3.402947   3.402947   4.300121   4.300121
    12  O    1.440000   2.456429   2.456429   2.677080   2.677080
    13  H    1.978086   3.243726   2.470451   3.609937   2.274931
                    6          7          8          9         10
     6  C    0.000000
     7  C    2.418512   0.000000
     8  H    1.086348   3.402947   0.000000
     9  H    3.402947   1.086348   4.300122   0.000000
    10  C    1.396328   1.396328   2.155640   2.155640   0.000000
    11  H    2.155639   2.155639   2.482676   2.482676   1.086347
    12  O    3.735632   3.735632   4.609786   4.609786   4.232658
    13  H    4.395567   3.860360   5.355065   4.562936   4.638029
                   11         12         13
    11  H    0.000000
    12  O    5.319005   0.000000
    13  H    5.707108   0.966130   0.000000
 Stoichiometry    C6H6O
 Framework group  CS[SG(C6H6O)]
 Deg. of freedom    23
 Full point group                 CS      NOp   2
 Largest Abelian subgroup         CS      NOp   2
 Largest concise Abelian subgroup C1      NOp   1
                         Standard orientation:                         
 ---------------------------------------------------------------------
 Center     Atomic     Atomic              Coordinates (Angstroms)
 Number     Number      Type              X           Y           Z
 ---------------------------------------------------------------------
    1          6             0        0.018270    0.929153    0.000000
    2          6             0        1.227526    0.230989    0.000000
    3          6             0       -1.190986    0.230989    0.000000
    4          1             0        2.168331    0.774162    0.000000
    5          1             0       -2.131791    0.774162    0.000000
    6          6             0        1.227526   -1.165341    0.000000
    7          6             0       -1.190986   -1.165341    0.000000
    8          1             0        2.168331   -1.708514    0.000000
    9          1             0       -2.131791   -1.708514    0.000000
   10          6             0        0.018270   -1.863505    0.000000
   11          1             0        0.018270   -2.949852    0.000000
   12          8             0        0.018270    2.369153    0.000000
   13          1             0       -0.895231    2.683673    0.000000
 ---------------------------------------------------------------------
 Rotational constants (GHZ):      5.6401923      2.5420186      1.7522738
 Leave Link  202 at Sun Sep 17 16:57:00 2017, MaxMem=   39321600 cpu:       0.0
 (Enter D:\GMK\G03W(C02)\l301.exe)
 Standard basis: 6-31G(d,p) (6D, 7F)
 There are   101 symmetry adapted basis functions of A'  symmetry.
 There are    34 symmetry adapted basis functions of A"  symmetry.
 Integral buffers will be    262144 words long.
 Raffenetti 2 integral format.
 Two-electron integral symmetry is turned on.
   135 basis functions,   238 primitive gaussians,   135 cartesian basis functions
    25 alpha electrons       25 beta electrons
       nuclear repulsion energy       268.7914420492 Hartrees.
 IExCor= 402 DFT=T Ex=B+HF Corr=LYP ExCW=0 ScaHFX=  0.200000
 ScaDFX=  0.800000  0.720000  1.000000  0.810000
 IRadAn=      0 IRanWt=     -1 IRanGd=            0 ICorTp=0
 NAtoms=   13 NActive=   13 NUniq=   13 SFac= 1.00D+00 NAtFMM=   60 Big=F
 Leave Link  301 at Sun Sep 17 16:57:00 2017, MaxMem=   39321600 cpu:       0.0
 (Enter D:\GMK\G03W(C02)\l302.exe)
 NPDir=0 NMtPBC=     1 NCelOv=     1 NCel=       1 NClECP=     1 NCelD=      1
         NCelK=      1 NCelE2=     1 NClLst=     1 CellRange=     0.0.
 One-electron integrals computed using PRISM.
 NBasis=   135 RedAO= T  NBF=   101    34
 NBsUse=   135 1.00D-06 NBFU=   101    34
 Precomputing XC quadrature grid using
 IXCGrd= 2 IRadAn=           0 IRanWt=          -1 IRanGd=           0.
 NRdTot=     807 NPtTot=      102264 NUsed=      105923 NTot=      105939
 NSgBfM=   135   135   135   135.
 Leave Link  302 at Sun Sep 17 16:57:01 2017, MaxMem=   39321600 cpu:       0.0
 (Enter D:\GMK\G03W(C02)\l303.exe)
 DipDrv:  MaxL=1.
 Leave Link  303 at Sun Sep 17 16:57:01 2017, MaxMem=   39321600 cpu:       0.0
 (Enter D:\GMK\G03W(C02)\l401.exe)
 Harris functional with IExCor=  402 diagonalized for initial guess.
 ExpMin= 1.61D-01 ExpMax= 5.48D+03 ExpMxC= 8.25D+02 IAcc=1 IRadAn=         1 AccDes= 1.00D-06
 HarFok:  IExCor= 402 AccDes= 1.00D-06 IRadAn=         1 IDoV=1
 ScaDFX=  1.000000  1.000000  1.000000  1.000000
 Harris En= -307.603664898396    
 Initial guess orbital symmetries:
       Occupied  (A') (A') (A') (A') (A') (A') (A') (A') (A') (A')
                 (A') (A') (A') (A') (A') (A') (A') (A') (A') (A")
                 (A') (A') (A") (A") (A")
       Virtual   (A") (A") (A') (A") (A') (A') (A') (A') (A') (A')
                 (A') (A') (A') (A') (A') (A') (A") (A') (A') (A')
                 (A') (A') (A") (A") (A') (A') (A") (A") (A') (A")
                 (A') (A') (A') (A') (A') (A') (A') (A") (A') (A')
                 (A') (A') (A') (A') (A') (A") (A') (A") (A") (A")
                 (A") (A") (A') (A') (A") (A') (A') (A') (A') (A')
                 (A') (A') (A") (A') (A') (A") (A') (A") (A') (A')
                 (A") (A") (A") (A') (A') (A') (A") (A') (A") (A')
                 (A') (A') (A') (A") (A") (A") (A') (A') (A") (A")
                 (A') (A') (A') (A') (A') (A') (A') (A') (A') (A')
                 (A') (A') (A') (A') (A') (A') (A') (A') (A') (A')
 The electronic state of the initial guess is 1-A'.
 Leave Link  401 at Sun Sep 17 16:57:02 2017, MaxMem=   39321600 cpu:       0.0
 (Enter D:\GMK\G03W(C02)\l502.exe)
 Closed shell SCF:
 Requested convergence on RMS density matrix=1.00D-08 within 128 cycles.
 Requested convergence on MAX density matrix=1.00D-06.
 Requested convergence on             energy=1.00D-06.
 No special actions if energy rises.
 Using DIIS extrapolation, IDIIS=  1040.
 Integral symmetry usage will be decided dynamically.
       105922 words used for storage of precomputed grid.
 IEnd=    183762 IEndB=    183762 NGot=  39321600 MDV=  39172839
 LenX=  39172839
 Fock matrices will be formed incrementally for  20 cycles.
 Integral accuracy reduced to 1.0D-05 until final iterations.

 Cycle   1  Pass 0  IDiag  1:
 Petite list used in FoFDir.
 MinBra= 0 MaxBra= 2 Meth= 1.
 IRaf=       0 NMat=   1 IRICut=       1 DoRegI=T DoRafI=F ISym2E= 1 JSym2E=1.
 E= -307.244632639745    
 DIIS: error= 5.54D-02 at cycle   1 NSaved=   1.
 NSaved= 1 IEnMin= 1 EnMin= -307.244632639745     IErMin= 1 ErrMin= 5.54D-02
 ErrMax= 5.54D-02 EMaxC= 1.00D-01 BMatC= 2.17D-01 BMatP= 2.17D-01
 IDIUse=3 WtCom= 4.46D-01 WtEn= 5.54D-01
 Coeff-Com:  0.100D+01
 Coeff-En:   0.100D+01
 Coeff:      0.100D+01
 Gap=     0.240 Goal=   None    Shift=    0.000
 GapD=    0.240 DampG=1.000 DampE=0.500 DampFc=0.5000 IDamp=-1.
 Damping current iteration by 5.00D-01
 RMSDP=7.52D-03 MaxDP=1.48D-01              OVMax= 1.80D-01

 Cycle   2  Pass 0  IDiag  1:
 RMSU=  3.68D-03    CP:  9.72D-01
 E= -307.350664976047     Delta-E=       -0.106032336302 Rises=F Damp=T
 DIIS: error= 6.00D-03 at cycle   2 NSaved=   2.
 NSaved= 2 IEnMin= 2 EnMin= -307.350664976047     IErMin= 2 ErrMin= 6.00D-03
 ErrMax= 6.00D-03 EMaxC= 1.00D-01 BMatC= 7.66D-03 BMatP= 2.17D-01
 IDIUse=3 WtCom= 9.40D-01 WtEn= 6.00D-02
 Coeff-Com:  0.419D-01 0.958D+00
 Coeff-En:   0.661D-01 0.934D+00
 Coeff:      0.433D-01 0.957D+00
 Gap=     0.230 Goal=   None    Shift=    0.000
 RMSDP=1.59D-03 MaxDP=3.25D-02 DE=-1.06D-01 OVMax= 1.23D-01

 Cycle   3  Pass 0  IDiag  1:
 RMSU=  1.51D-03    CP:  9.66D-01  8.68D-01
 E= -307.469079212001     Delta-E=       -0.118414235955 Rises=F Damp=F
 DIIS: error= 8.69D-03 at cycle   3 NSaved=   3.
 NSaved= 3 IEnMin= 3 EnMin= -307.469079212001     IErMin= 2 ErrMin= 6.00D-03
 ErrMax= 8.69D-03 EMaxC= 1.00D-01 BMatC= 5.04D-03 BMatP= 7.66D-03
 IDIUse=3 WtCom= 9.13D-01 WtEn= 8.69D-02
 Coeff-Com: -0.947D-02 0.436D+00 0.574D+00
 Coeff-En:   0.000D+00 0.000D+00 0.100D+01
 Coeff:     -0.865D-02 0.398D+00 0.611D+00
 Gap=     0.224 Goal=   None    Shift=    0.000
 RMSDP=8.55D-04 MaxDP=2.47D-02 DE=-1.18D-01 OVMax= 4.99D-02

 Cycle   4  Pass 0  IDiag  1:
 RMSU=  6.96D-04    CP:  9.67D-01  9.02D-01  6.82D-01
 E= -307.471905726604     Delta-E=       -0.002826514603 Rises=F Damp=F
 DIIS: error= 6.75D-03 at cycle   4 NSaved=   4.
 NSaved= 4 IEnMin= 4 EnMin= -307.471905726604     IErMin= 2 ErrMin= 6.00D-03
 ErrMax= 6.75D-03 EMaxC= 1.00D-01 BMatC= 2.31D-03 BMatP= 5.04D-03
 IDIUse=3 WtCom= 9.32D-01 WtEn= 6.75D-02
 Coeff-Com: -0.107D-01 0.114D+00 0.408D+00 0.489D+00
 Coeff-En:   0.000D+00 0.000D+00 0.355D+00 0.645D+00
 Coeff:     -0.100D-01 0.106D+00 0.405D+00 0.499D+00
 Gap=     0.222 Goal=   None    Shift=    0.000
 RMSDP=4.15D-04 MaxDP=9.04D-03 DE=-2.83D-03 OVMax= 2.36D-02

 Cycle   5  Pass 0  IDiag  1:
 RMSU=  1.42D-04    CP:  9.67D-01  8.99D-01  7.94D-01  4.96D-01
 E= -307.474502729882     Delta-E=       -0.002597003278 Rises=F Damp=F
 DIIS: error= 7.51D-04 at cycle   5 NSaved=   5.
 NSaved= 5 IEnMin= 5 EnMin= -307.474502729882     IErMin= 5 ErrMin= 7.51D-04
 ErrMax= 7.51D-04 EMaxC= 1.00D-01 BMatC= 3.58D-05 BMatP= 2.31D-03
 IDIUse=3 WtCom= 9.92D-01 WtEn= 7.51D-03
 Coeff-Com: -0.264D-02 0.927D-02 0.994D-01 0.183D+00 0.711D+00
 Coeff-En:   0.000D+00 0.000D+00 0.000D+00 0.000D+00 0.100D+01
 Coeff:     -0.262D-02 0.920D-02 0.987D-01 0.181D+00 0.713D+00
 Gap=     0.222 Goal=   None    Shift=    0.000
 RMSDP=5.88D-05 MaxDP=1.22D-03 DE=-2.60D-03 OVMax= 3.60D-03

 Cycle   6  Pass 0  IDiag  1:
 RMSU=  3.87D-05    CP:  9.66D-01  9.01D-01  7.90D-01  5.46D-01  8.24D-01
 E= -307.474533951881     Delta-E=       -0.000031221999 Rises=F Damp=F
 DIIS: error= 2.10D-04 at cycle   6 NSaved=   6.
 NSaved= 6 IEnMin= 6 EnMin= -307.474533951881     IErMin= 6 ErrMin= 2.10D-04
 ErrMax= 2.10D-04 EMaxC= 1.00D-01 BMatC= 8.39D-06 BMatP= 3.58D-05
 IDIUse=3 WtCom= 9.98D-01 WtEn= 2.10D-03
 Coeff-Com: -0.110D-02 0.341D-03 0.378D-01 0.806D-01 0.422D+00 0.461D+00
 Coeff-En:   0.000D+00 0.000D+00 0.000D+00 0.000D+00 0.124D+00 0.876D+00
 Coeff:     -0.110D-02 0.340D-03 0.378D-01 0.805D-01 0.421D+00 0.461D+00
 Gap=     0.222 Goal=   None    Shift=    0.000
 RMSDP=2.02D-05 MaxDP=4.78D-04 DE=-3.12D-05 OVMax= 9.00D-04

 Cycle   7  Pass 0  IDiag  1:
 RMSU=  6.17D-06    CP:  9.67D-01  9.00D-01  7.93D-01  5.44D-01  8.37D-01
                    CP:  5.39D-01
 E= -307.474533460072     Delta-E=        0.000000491809 Rises=F Damp=F
 DIIS: error= 3.63D-05 at cycle   7 NSaved=   7.
 NSaved= 7 IEnMin= 6 EnMin= -307.474533951881     IErMin= 7 ErrMin= 3.63D-05
 ErrMax= 3.63D-05 EMaxC= 1.00D-01 BMatC= 8.60D-08 BMatP= 8.39D-06
 IDIUse=1 WtCom= 1.00D+00 WtEn= 0.00D+00
 Coeff-Com: -0.186D-03-0.552D-03 0.833D-02 0.190D-01 0.115D+00 0.157D+00
 Coeff-Com:  0.702D+00
 Coeff:     -0.186D-03-0.552D-03 0.833D-02 0.190D-01 0.115D+00 0.157D+00
 Coeff:      0.702D+00
 Gap=     0.222 Goal=   None    Shift=    0.000
 RMSDP=2.87D-06 MaxDP=8.50D-05 DE= 4.92D-07 OVMax= 1.33D-04

 Initial convergence to 1.0D-05 achieved.  Increase integral accuracy.
 Cycle   8  Pass 1  IDiag  1:
 E= -307.474479946014     Delta-E=        0.000053514058 Rises=F Damp=F
 DIIS: error= 5.07D-05 at cycle   1 NSaved=   1.
 NSaved= 1 IEnMin= 1 EnMin= -307.474479946014     IErMin= 1 ErrMin= 5.07D-05
 ErrMax= 5.07D-05 EMaxC= 1.00D-01 BMatC= 1.12D-07 BMatP= 1.12D-07
 IDIUse=1 WtCom= 1.00D+00 WtEn= 0.00D+00
 Coeff-Com:  0.100D+01
 Coeff:      0.100D+01
 Gap=     0.222 Goal=   None    Shift=    0.000
 RMSDP=2.87D-06 MaxDP=8.50D-05 DE= 5.35D-05 OVMax= 2.25D-04

 Cycle   9  Pass 1  IDiag  1:
 RMSU=  6.97D-06    CP:  1.00D+00
 E= -307.474479973827     Delta-E=       -0.000000027813 Rises=F Damp=F
 DIIS: error= 3.51D-05 at cycle   2 NSaved=   2.
 NSaved= 2 IEnMin= 2 EnMin= -307.474479973827     IErMin= 2 ErrMin= 3.51D-05
 ErrMax= 3.51D-05 EMaxC= 1.00D-01 BMatC= 1.14D-07 BMatP= 1.12D-07
 IDIUse=1 WtCom= 1.00D+00 WtEn= 0.00D+00
 Coeff-Com:  0.502D+00 0.498D+00
 Coeff:      0.502D+00 0.498D+00
 Gap=     0.222 Goal=   None    Shift=    0.000
 RMSDP=3.31D-06 MaxDP=7.68D-05 DE=-2.78D-08 OVMax= 1.96D-04

 Cycle  10  Pass 1  IDiag  1:
 RMSU=  2.78D-06    CP:  1.00D+00  7.42D-01
 E= -307.474480063442     Delta-E=       -0.000000089615 Rises=F Damp=F
 DIIS: error= 1.27D-05 at cycle   3 NSaved=   3.
 NSaved= 3 IEnMin= 3 EnMin= -307.474480063442     IErMin= 3 ErrMin= 1.27D-05
 ErrMax= 1.27D-05 EMaxC= 1.00D-01 BMatC= 1.84D-08 BMatP= 1.12D-07
 IDIUse=1 WtCom= 1.00D+00 WtEn= 0.00D+00
 Coeff-Com: -0.513D-02 0.283D+00 0.722D+00
 Coeff:     -0.513D-02 0.283D+00 0.722D+00
 Gap=     0.222 Goal=   None    Shift=    0.000
 RMSDP=1.12D-06 MaxDP=2.19D-05 DE=-8.96D-08 OVMax= 6.46D-05

 Cycle  11  Pass 1  IDiag  1:
 RMSU=  4.63D-07    CP:  1.00D+00  8.37D-01  7.20D-01
 E= -307.474480079854     Delta-E=       -0.000000016412 Rises=F Damp=F
 DIIS: error= 3.95D-06 at cycle   4 NSaved=   4.
 NSaved= 4 IEnMin= 4 EnMin= -307.474480079854     IErMin= 4 ErrMin= 3.95D-06
 ErrMax= 3.95D-06 EMaxC= 1.00D-01 BMatC= 1.23D-09 BMatP= 1.84D-08
 IDIUse=1 WtCom= 1.00D+00 WtEn= 0.00D+00
 Coeff-Com: -0.144D-01 0.159D+00 0.433D+00 0.422D+00
 Coeff:     -0.144D-01 0.159D+00 0.433D+00 0.422D+00
 Gap=     0.222 Goal=   None    Shift=    0.000
 RMSDP=2.76D-07 MaxDP=1.04D-05 DE=-1.64D-08 OVMax= 1.72D-05

 Cycle  12  Pass 1  IDiag  1:
 RMSU=  1.25D-07    CP:  1.00D+00  8.35D-01  7.50D-01  4.98D-01
 E= -307.474480081304     Delta-E=       -0.000000001450 Rises=F Damp=F
 DIIS: error= 5.32D-07 at cycle   5 NSaved=   5.
 NSaved= 5 IEnMin= 5 EnMin= -307.474480081304     IErMin= 5 ErrMin= 5.32D-07
 ErrMax= 5.32D-07 EMaxC= 1.00D-01 BMatC= 2.62D-11 BMatP= 1.23D-09
 IDIUse=1 WtCom= 1.00D+00 WtEn= 0.00D+00
 Coeff-Com: -0.536D-02 0.487D-01 0.133D+00 0.180D+00 0.644D+00
 Coeff:     -0.536D-02 0.487D-01 0.133D+00 0.180D+00 0.644D+00
 Gap=     0.222 Goal=   None    Shift=    0.000
 RMSDP=4.88D-08 MaxDP=1.04D-06 DE=-1.45D-09 OVMax= 2.49D-06

 Cycle  13  Pass 1  IDiag  1:
 RMSU=  2.89D-08    CP:  1.00D+00  8.35D-01  7.43D-01  5.30D-01  7.45D-01
 E= -307.474480081280     Delta-E=        0.000000000024 Rises=F Damp=F
 DIIS: error= 1.70D-07 at cycle   6 NSaved=   6.
 NSaved= 6 IEnMin= 5 EnMin= -307.474480081304     IErMin= 6 ErrMin= 1.70D-07
 ErrMax= 1.70D-07 EMaxC= 1.00D-01 BMatC= 5.72D-12 BMatP= 2.62D-11
 IDIUse=1 WtCom= 1.00D+00 WtEn= 0.00D+00
 Coeff-Com: -0.206D-02 0.164D-01 0.448D-01 0.715D-01 0.377D+00 0.493D+00
 Coeff:     -0.206D-02 0.164D-01 0.448D-01 0.715D-01 0.377D+00 0.493D+00
 Gap=     0.222 Goal=   None    Shift=    0.000
 RMSDP=1.56D-08 MaxDP=5.00D-07 DE= 2.38D-11 OVMax= 7.19D-07

 Cycle  14  Pass 1  IDiag  1:
 RMSU=  7.88D-09    CP:  1.00D+00  8.35D-01  7.45D-01  5.24D-01  7.75D-01
                    CP:  5.94D-01
 E= -307.474480081260     Delta-E=        0.000000000020 Rises=F Damp=F
 DIIS: error= 2.52D-08 at cycle   7 NSaved=   7.
 NSaved= 7 IEnMin= 5 EnMin= -307.474480081304     IErMin= 7 ErrMin= 2.52D-08
 ErrMax= 2.52D-08 EMaxC= 1.00D-01 BMatC= 1.41D-13 BMatP= 5.72D-12
 IDIUse=1 WtCom= 1.00D+00 WtEn= 0.00D+00
 Coeff-Com: -0.134D-03 0.429D-03 0.117D-02 0.391D-02 0.575D-01 0.171D+00
 Coeff-Com:  0.766D+00
 Coeff:     -0.134D-03 0.429D-03 0.117D-02 0.391D-02 0.575D-01 0.171D+00
 Coeff:      0.766D+00
 Gap=     0.222 Goal=   None    Shift=    0.000
 RMSDP=3.23D-09 MaxDP=9.98D-08 DE= 2.02D-11 OVMax= 1.18D-07

 SCF Done:  E(RB+HF-LYP) =  -307.474480081     A.U. after   14 cycles
             Convg  =    0.3226D-08             -V/T =  2.0100
             S**2   =   0.0000
 KE= 3.044430207070D+02 PE=-1.252616935180D+03 EE= 3.719079923422D+02
 Leave Link  502 at Sun Sep 17 16:57:31 2017, MaxMem=   39321600 cpu:      29.0
 (Enter D:\GMK\G03W(C02)\l601.exe)
 Copying SCF densities to generalized density rwf, ISCF=0 IROHF=0.

 **********************************************************************

            Population analysis using the SCF density.

 **********************************************************************

 Orbital symmetries:
       Occupied  (A') (A') (A') (A') (A') (A') (A') (A') (A') (A')
                 (A') (A') (A') (A') (A') (A') (A') (A') (A") (A')
                 (A') (A') (A") (A") (A")
       Virtual   (A") (A") (A') (A') (A') (A') (A") (A') (A') (A')
                 (A') (A') (A') (A') (A') (A') (A") (A') (A') (A')
                 (A") (A") (A') (A') (A') (A') (A") (A") (A') (A")
                 (A') (A') (A') (A') (A') (A') (A') (A') (A") (A')
                 (A') (A') (A') (A') (A') (A') (A") (A") (A') (A")
                 (A") (A") (A") (A') (A") (A') (A') (A') (A') (A')
                 (A') (A") (A') (A') (A") (A') (A') (A") (A') (A')
                 (A") (A") (A") (A') (A') (A') (A") (A") (A') (A')
                 (A') (A') (A') (A") (A") (A') (A") (A') (A") (A")
                 (A') (A') (A') (A') (A') (A') (A') (A') (A') (A')
                 (A') (A') (A') (A') (A') (A') (A') (A') (A') (A')
 The electronic state is 1-A'.
 Alpha  occ. eigenvalues --  -19.17013 -10.25145 -10.19398 -10.19294 -10.19194
 Alpha  occ. eigenvalues --  -10.18867 -10.18526  -1.02906  -0.84876  -0.74720
 Alpha  occ. eigenvalues --   -0.73664  -0.61522  -0.59861  -0.53443  -0.49394
 Alpha  occ. eigenvalues --   -0.45880  -0.43796  -0.42288  -0.39171  -0.38252
 Alpha  occ. eigenvalues --   -0.35648  -0.33855  -0.32748  -0.25223  -0.22514
 Alpha virt. eigenvalues --   -0.00295   0.01104   0.07330   0.08737   0.14297
 Alpha virt. eigenvalues --    0.15122   0.16416   0.18681   0.18761   0.21875
 Alpha virt. eigenvalues --    0.29858   0.30271   0.33414   0.34156   0.47741
 Alpha virt. eigenvalues --    0.51796   0.52227   0.54777   0.56403   0.59080
 Alpha virt. eigenvalues --    0.59687   0.60234   0.60614   0.61467   0.61518
 Alpha virt. eigenvalues --    0.63340   0.66184   0.67374   0.74994   0.75493
 Alpha virt. eigenvalues --    0.81476   0.81847   0.82953   0.84206   0.88105
 Alpha virt. eigenvalues --    0.90885   0.93234   0.95193   0.95578   0.98963
 Alpha virt. eigenvalues --    1.04702   1.08618   1.10772   1.16632   1.18036
 Alpha virt. eigenvalues --    1.24308   1.24888   1.30193   1.36675   1.37976
 Alpha virt. eigenvalues --    1.39971   1.41429   1.42183   1.43195   1.59984
 Alpha virt. eigenvalues --    1.64940   1.75516   1.77641   1.78910   1.85926
 Alpha virt. eigenvalues --    1.87609   1.90925   1.91904   1.92856   1.96938
 Alpha virt. eigenvalues --    1.97072   1.99289   2.00570   2.06509   2.14143
 Alpha virt. eigenvalues --    2.25679   2.28232   2.31467   2.32521   2.36326
 Alpha virt. eigenvalues --    2.37624   2.38737   2.40819   2.41976   2.43844
 Alpha virt. eigenvalues --    2.45483   2.48279   2.51208   2.56028   2.59033
 Alpha virt. eigenvalues --    2.59766   2.60790   2.68768   2.69964   2.75361
 Alpha virt. eigenvalues --    2.75587   2.81649   2.90978   3.04749   3.08552
 Alpha virt. eigenvalues --    3.18416   3.23604   3.24324   3.36374   3.39666
 Alpha virt. eigenvalues --    3.48276   3.50630   3.90079   4.04502   4.12760
 Alpha virt. eigenvalues --    4.15689   4.22727   4.43374   4.46651   4.83410
          Condensed to atoms (all electrons):
              1          2          3          4          5          6
     1  C    4.550654   0.541860   0.502930  -0.037048  -0.046942  -0.018050
     2  C    0.541860   4.870351  -0.063978   0.360631   0.005230   0.536996
     3  C    0.502930  -0.063978   4.999532   0.006426   0.359562  -0.040289
     4  H   -0.037048   0.360631   0.006426   0.618640  -0.000174  -0.042654
     5  H   -0.046942   0.005230   0.359562  -0.000174   0.646011   0.000467
     6  C   -0.018050   0.536996  -0.040289  -0.042654   0.000467   4.802731
     7  C   -0.008766  -0.038104   0.494467   0.000096  -0.036783  -0.030694
     8  H    0.004253  -0.038901   0.000656  -0.006789   0.000014   0.369376
     9  H    0.003555   0.000698  -0.035852   0.000015  -0.006667   0.004619
    10  C   -0.040269  -0.040112  -0.041098   0.005168   0.004900   0.544427
    11  H    0.000768   0.004717   0.005025  -0.000173  -0.000184  -0.041452
    12  O    0.252739  -0.043921  -0.055640  -0.001735  -0.007222   0.002653
    13  H   -0.031072   0.004790  -0.004280  -0.000232   0.005820  -0.000146
              7          8          9         10         11         12
     1  C   -0.008766   0.004253   0.003555  -0.040269   0.000768   0.252739
     2  C   -0.038104  -0.038901   0.000698  -0.040112   0.004717  -0.043921
     3  C    0.494467   0.000656  -0.035852  -0.041098   0.005025  -0.055640
     4  H    0.000096  -0.006789   0.000015   0.005168  -0.000173  -0.001735
     5  H   -0.036783   0.000014  -0.006667   0.004900  -0.000184  -0.007222
     6  C   -0.030694   0.369376   0.004619   0.544427  -0.041452   0.002653
     7  C    4.824043   0.004756   0.365249   0.550675  -0.041504   0.004404
     8  H    0.004756   0.623258  -0.000201  -0.041239  -0.006060  -0.000043
     9  H    0.365249  -0.000201   0.625990  -0.040004  -0.006102  -0.000048
    10  C    0.550675  -0.041239  -0.040004   4.819426   0.368910   0.000087
    11  H   -0.041504  -0.006060  -0.006102   0.368910   0.633360   0.000001
    12  O    0.004404  -0.000043  -0.000048   0.000087   0.000001   8.141144
    13  H    0.000560   0.000004  -0.000010  -0.000019  -0.000001   0.289921
             13
     1  C   -0.031072
     2  C    0.004790
     3  C   -0.004280
     4  H   -0.000232
     5  H    0.005820
     6  C   -0.000146
     7  C    0.000560
     8  H    0.000004
     9  H   -0.000010
    10  C   -0.000019
    11  H   -0.000001
    12  O    0.289921
    13  H    0.418928
 Mulliken atomic charges:
              1
     1  C    0.325389
     2  C   -0.100255
     3  C   -0.127461
     4  H    0.097828
     5  H    0.075970
     6  C   -0.087983
     7  C   -0.088400
     8  H    0.090916
     9  H    0.088758
    10  C   -0.090852
    11  H    0.082695
    12  O   -0.582342
    13  H    0.315737
 Sum of Mulliken charges=   0.00000
 Atomic charges with hydrogens summed into heavy atoms:
              1
     1  C    0.325389
     2  C   -0.002427
     3  C   -0.051490
     4  H    0.000000
     5  H    0.000000
     6  C    0.002933
     7  C    0.000358
     8  H    0.000000
     9  H    0.000000
    10  C   -0.008158
    11  H    0.000000
    12  O   -0.266605
    13  H    0.000000
 Sum of Mulliken charges=   0.00000
 Electronic spatial extent (au):  <R**2>=   676.3140
 Charge=     0.0000 electrons
 Dipole moment (field-independent basis, Debye):
    X=    -1.3154    Y=    -0.4197    Z=     0.0000  Tot=     1.3808
 Quadrupole moment (field-independent basis, Debye-Ang):
   XX=   -34.6606   YY=   -37.8063   ZZ=   -43.7096
   XY=    -4.4226   XZ=     0.0000   YZ=     0.0000
 Traceless Quadrupole moment (field-independent basis, Debye-Ang):
   XX=     4.0649   YY=     0.9192   ZZ=    -4.9841
   XY=    -4.4226   XZ=     0.0000   YZ=     0.0000
 Octapole moment (field-independent basis, Debye-Ang**2):
  XXX=    -0.7166  YYY=     5.6389  ZZZ=     0.0000  XYY=   -12.7608
  XXY=     5.9079  XXZ=     0.0000  XZZ=    -0.2147  YZZ=     5.3067
  YYZ=     0.0000  XYZ=     0.0000
 Hexadecapole moment (field-independent basis, Debye-Ang**3):
 XXXX=  -272.0780 YYYY=  -494.1620 ZZZZ=   -43.2112 XXXY=     0.5744
 XXXZ=     0.0000 YYYX=   -32.3680 YYYZ=     0.0000 ZZZX=     0.0000
 ZZZY=     0.0000 XXYY=  -116.9042 XXZZ=   -62.1456 YYZZ=  -102.0327
 XXYZ=     0.0000 YYXZ=     0.0000 ZZXY=     1.2233
 N-N= 2.687914420492D+02 E-N=-1.252616931505D+03  KE= 3.044430207070D+02
 Symmetry A'   KE= 2.934515797499D+02
 Symmetry A"   KE= 1.099144095705D+01
 No NMR shielding tensors so no spin-rotation constants.
 Leave Link  601 at Sun Sep 17 16:57:31 2017, MaxMem=   39321600 cpu:       0.0
 (Enter D:\GMK\G03W(C02)\l701.exe)
 Compute integral first derivatives.
 ... and contract with generalized density number  0.
 Leave Link  701 at Sun Sep 17 16:57:32 2017, MaxMem=   39321600 cpu:       0.0
 (Enter D:\GMK\G03W(C02)\l702.exe)
 L702 exits ... SP integral derivatives will be done elsewhere.
 Leave Link  702 at Sun Sep 17 16:57:32 2017, MaxMem=   39321600 cpu:       0.0
 (Enter D:\GMK\G03W(C02)\l703.exe)
 Compute integral first derivatives, UseDBF=F.
 Integral derivatives from FoFDir, PRISM(SPDF).
 Petite list used in FoFDir.
 MinBra= 0 MaxBra= 2 Meth= 1.
 IRaf=       0 NMat=   1 IRICut=       1 DoRegI=T DoRafI=F ISym2E= 1 JSym2E=1.
 Leave Link  703 at Sun Sep 17 16:57:42 2017, MaxMem=   39321600 cpu:      10.0
 (Enter D:\GMK\G03W(C02)\l716.exe)
 Dipole        =-5.17531448D-01-1.65105000D-01 6.61880058D-17
 ***** Axes restored to original set *****
 -------------------------------------------------------------------
 Center     Atomic                   Forces (Hartrees/Bohr)
 Number     Number              X              Y              Z
 -------------------------------------------------------------------
    1          6           0.005915292    0.008002292   -0.037330706
    2          6          -0.003893270   -0.005266871   -0.005790648
    3          6           0.000934703    0.001264480    0.002489121
    4          1           0.001038544    0.001404958   -0.001543648
    5          1           0.000442076    0.000598047   -0.000571591
    6          6           0.003329989    0.004504857   -0.002770388
    7          6          -0.001878952   -0.002541873   -0.001103947
    8          1          -0.000016338   -0.000022103   -0.001304572
    9          1           0.000035134    0.000047529   -0.000864502
   10          6           0.000280509    0.000379477    0.003609198
   11          1           0.000088362    0.000119537   -0.000357025
   12          8          -0.006782433   -0.009175373    0.041243302
   13          1           0.000506384    0.000685043    0.004295408
 -------------------------------------------------------------------
 Cartesian Forces:  Max     0.041243302 RMS     0.009474008
 Leave Link  716 at Sun Sep 17 16:57:42 2017, MaxMem=   39321600 cpu:       0.0
 (Enter D:\GMK\G03W(C02)\l103.exe)

 GradGradGradGradGradGradGradGradGradGradGradGradGradGradGradGradGradGrad
 Berny optimization.
 Internal  Forces:  Max     0.045538070 RMS     0.006526492
 Search for a local minimum.
 Step number   1 out of a maximum of  68
 All quantities printed in internal units (Hartrees-Bohrs-Radians)
 Second derivative matrix not updated -- first step.
     Eigenvalues ---    0.01163   0.01960   0.02137   0.02137   0.02137
     Eigenvalues ---    0.02137   0.02137   0.02137   0.02137   0.02137
     Eigenvalues ---    0.16000   0.16000   0.16000   0.16000   0.16000
     Eigenvalues ---    0.16000   0.22000   0.22000   0.23486   0.25000
     Eigenvalues ---    0.35238   0.35238   0.35238   0.35238   0.35238
     Eigenvalues ---    0.39585   0.41939   0.42130   0.46234   0.46234
     Eigenvalues ---    0.46234   0.46234   0.541751000.000001000.00000
     Eigenvalues --- 1000.000001000.000001000.000001000.000001000.00000
     Eigenvalues --- 1000.000001000.000001000.000001000.000001000.00000
     Eigenvalues --- 1000.000001000.000001000.000001000.000001000.00000
     Eigenvalues --- 1000.000001000.000001000.000001000.000001000.00000
     Eigenvalues --- 1000.000001000.000001000.00000
 RFO step:  Lambda=-6.82950909D-03.
 Linear search not attempted -- first point.
 Iteration  1 RMS(Cart)=  0.03121654 RMS(Int)=  0.00043405
 Iteration  2 RMS(Cart)=  0.00063263 RMS(Int)=  0.00000362
 Iteration  3 RMS(Cart)=  0.00000057 RMS(Int)=  0.00000360
 Variable       Old X    -DE/DX   Delta X   Delta X   Delta X     New X
                                 (Linear)    (Quad)   (Total)
    R1        2.63868  -0.00466   0.00000  -0.01008  -0.01008   2.62860
    R2        2.63868   0.00060   0.00000   0.00129   0.00129   2.63997
    R3        2.72121  -0.04554   0.00000  -0.11309  -0.11309   2.60812
    R4        2.05290  -0.00074   0.00000  -0.00206  -0.00206   2.05084
    R5        2.63868  -0.00151   0.00000  -0.00336  -0.00336   2.63532
    R6        2.05290   0.00093   0.00000   0.00259   0.00259   2.05549
    R7        2.63868  -0.00128   0.00000  -0.00259  -0.00259   2.63609
    R8        2.05290  -0.00063   0.00000  -0.00175  -0.00175   2.05115
    R9        2.63868   0.00085   0.00000   0.00182   0.00182   2.64049
   R10        2.05290  -0.00038   0.00000  -0.00106  -0.00106   2.05184
   R11        2.63868  -0.00063   0.00000  -0.00118  -0.00119   2.63749
   R12        2.05290  -0.00036   0.00000  -0.00099  -0.00099   2.05190
   R13        1.82572  -0.00059   0.00000  -0.00108  -0.00108   1.82464
    A1        2.09440   0.00416   0.00000   0.01622   0.01624   2.11063
    A2        2.09439  -0.01249   0.00000  -0.04865  -0.04866   2.04574
    A3        2.09439   0.00833   0.00000   0.03243   0.03242   2.12682
    A4        2.09440  -0.00045   0.00000  -0.00544  -0.00545   2.08895
    A5        2.09439  -0.00363   0.00000  -0.01629  -0.01628   2.07812
    A6        2.09439   0.00408   0.00000   0.02173   0.02173   2.11612
    A7        2.09440   0.00097   0.00000   0.00375   0.00374   2.09814
    A8        2.09439  -0.00220   0.00000  -0.00903  -0.00903   2.08537
    A9        2.09439   0.00123   0.00000   0.00529   0.00528   2.09968
   A10        2.09439  -0.00268   0.00000  -0.01369  -0.01369   2.08070
   A11        2.09439   0.00302   0.00000   0.01334   0.01333   2.10773
   A12        2.09440  -0.00034   0.00000   0.00035   0.00035   2.09475
   A13        2.09439  -0.00113   0.00000  -0.00676  -0.00676   2.08764
   A14        2.09439   0.00066   0.00000   0.00392   0.00391   2.09831
   A15        2.09440   0.00047   0.00000   0.00284   0.00285   2.09724
   A16        2.09440  -0.00200   0.00000  -0.00816  -0.00817   2.08622
   A17        2.09439   0.00116   0.00000   0.00501   0.00501   2.09941
   A18        2.09439   0.00085   0.00000   0.00315   0.00316   2.09755
   A19        1.90239  -0.00792   0.00000  -0.04747  -0.04747   1.85492
    D1        3.14159   0.00000   0.00000   0.00000   0.00000   3.14159
    D2        0.00000   0.00000   0.00000   0.00000   0.00000   0.00000
    D3        0.00000   0.00000   0.00000   0.00000   0.00000   0.00000
    D4        3.14159   0.00000   0.00000   0.00000   0.00000   3.14159
    D5        3.14159   0.00000   0.00000   0.00000   0.00000   3.14159
    D6        0.00000   0.00000   0.00000   0.00000   0.00000   0.00000
    D7        0.00000   0.00000   0.00000   0.00000   0.00000   0.00000
    D8        3.14159   0.00000   0.00000   0.00000   0.00000   3.14159
    D9        3.14159   0.00000   0.00000   0.00000   0.00000   3.14159
   D10        0.00000   0.00000   0.00000   0.00000   0.00000   0.00000
   D11       -3.14159   0.00000   0.00000   0.00000   0.00000   3.14159
   D12        0.00000   0.00000   0.00000   0.00000   0.00000   0.00000
   D13        0.00000   0.00000   0.00000   0.00000   0.00000   0.00000
   D14        3.14159   0.00000   0.00000   0.00000   0.00000   3.14159
   D15        3.14159   0.00000   0.00000   0.00000   0.00000   3.14159
   D16        0.00000   0.00000   0.00000   0.00000   0.00000   0.00000
   D17        0.00000   0.00000   0.00000   0.00000   0.00000   0.00000
   D18        3.14159   0.00000   0.00000   0.00000   0.00000  -3.14159
   D19        0.00000   0.00000   0.00000   0.00000   0.00000   0.00000
   D20        3.14159   0.00000   0.00000   0.00000   0.00000   3.14159
   D21        3.14159   0.00000   0.00000   0.00000   0.00000   3.14159
   D22        0.00000   0.00000   0.00000   0.00000   0.00000   0.00000
   D23        0.00000   0.00000   0.00000   0.00000   0.00000   0.00000
   D24        3.14159   0.00000   0.00000   0.00000   0.00000   3.14159
   D25        3.14159   0.00000   0.00000   0.00000   0.00000   3.14159
   D26        0.00000   0.00000   0.00000   0.00000   0.00000   0.00000
         Item               Value     Threshold  Converged?
 Maximum Force            0.045538     0.000450     NO 
 RMS     Force            0.006526     0.000300     NO 
 Maximum Displacement     0.135496     0.001800     NO 
 RMS     Displacement     0.031125     0.001200     NO 
 Predicted change in Energy=-3.484059D-03
 GradGradGradGradGradGradGradGradGradGradGradGradGradGradGradGradGradGrad

 Leave Link  103 at Sun Sep 17 16:57:43 2017, MaxMem=   39321600 cpu:       1.0
 (Enter D:\GMK\G03W(C02)\l202.exe)
                          Input orientation:                          
 ---------------------------------------------------------------------
 Center     Atomic     Atomic              Coordinates (Angstroms)
 Number     Number      Type              X           Y           Z
 ---------------------------------------------------------------------
    1          6             0       -0.363620   -0.367531   -0.786374
    2          6             0       -1.084776   -1.343121   -0.105913
    3          6             0        0.357118    0.607495   -0.092467
    4          1             0       -1.637595   -2.090983   -0.665262
    5          1             0        0.917047    1.364974   -0.636375
    6          6             0       -1.081591   -1.338813    1.288628
    7          6             0        0.352781    0.601627    1.302475
    8          1             0       -1.643504   -2.098977    1.822055
    9          1             0        0.912224    1.358450    1.843932
   10          6             0       -0.366257   -0.371098    1.998728
   11          1             0       -0.369147   -0.375008    3.084538
   12          8             0       -0.393330   -0.407722   -2.165626
   13          1             0        0.151424    0.329229   -2.469673
 ---------------------------------------------------------------------
                    Distance matrix (angstroms):
                    1          2          3          4          5
     1  C    0.000000
     2  C    1.390995   0.000000
     3  C    1.397013   2.425725   0.000000
     4  H    2.146618   1.085255   3.404227   0.000000
     5  H    2.159671   3.409173   1.087718   4.297751   0.000000
     6  C    2.400938   1.394551   2.786651   2.166238   3.874358
     7  C    2.411594   2.798602   1.394961   3.883779   2.158757
     8  H    3.382293   2.144890   3.872063   2.487337   4.959763
     9  H    3.394893   3.884377   2.149818   4.969529   2.480321
    10  C    2.785105   2.427058   2.419507   3.416306   3.406550
    11  H    3.870923   3.410036   3.403842   4.314456   4.304303
    12  O    1.380157   2.365478   2.427308   2.575394   2.682936
    13  H    1.893209   3.148382   2.402259   3.509119   2.240519
                    6          7          8          9         10
     6  C    0.000000
     7  C    2.413073   0.000000
     8  H    1.085421   3.398291   0.000000
     9  H    3.399836   1.085786   4.299538   0.000000
    10  C    1.397289   1.395700   2.155955   2.156342   0.000000
    11  H    2.159118   2.156559   2.487955   2.487145   1.085821
    12  O    3.643144   3.688250   4.508311   4.571694   4.164603
    13  H    4.292728   3.787327   5.247559   4.499478   4.552478
                   11         12         13
    11  H    0.000000
    12  O    5.250321   0.000000
    13  H    5.622829   0.965556   0.000000
 Stoichiometry    C6H6O
 Framework group  CS[SG(C6H6O)]
 Deg. of freedom    23
 Full point group                 CS      NOp   2
 Largest Abelian subgroup         CS      NOp   2
 Largest concise Abelian subgroup C1      NOp   1
                         Standard orientation:                         
 ---------------------------------------------------------------------
 Center     Atomic     Atomic              Coordinates (Angstroms)
 Number     Number      Type              X           Y           Z
 ---------------------------------------------------------------------
    1          6             0        0.000000    0.932104    0.000000
    2          6             0        1.219207    0.262476    0.000000
    3          6             0       -1.206264    0.227426    0.000000
    4          1             0        2.144192    0.830086    0.000000
    5          1             0       -2.153034    0.762922    0.000000
    6          6             0        1.226271   -1.132057    0.000000
    7          6             0       -1.186543   -1.167396    0.000000
    8          1             0        2.176287   -1.657043    0.000000
    9          1             0       -2.122830   -1.717215    0.000000
   10          6             0        0.029242   -1.852848    0.000000
   11          1             0        0.043775   -2.938571    0.000000
   12          8             0        0.037693    2.311747    0.000000
   13          1             0       -0.881414    2.607619    0.000000
 ---------------------------------------------------------------------
 Rotational constants (GHZ):      5.6366581      2.6209653      1.7890723
 Leave Link  202 at Sun Sep 17 16:57:43 2017, MaxMem=   39321600 cpu:       0.0
 (Enter D:\GMK\G03W(C02)\l301.exe)
 Standard basis: 6-31G(d,p) (6D, 7F)
 There are   101 symmetry adapted basis functions of A'  symmetry.
 There are    34 symmetry adapted basis functions of A"  symmetry.
 Integral buffers will be    262144 words long.
 Raffenetti 2 integral format.
 Two-electron integral symmetry is turned on.
   135 basis functions,   238 primitive gaussians,   135 cartesian basis functions
    25 alpha electrons       25 beta electrons
       nuclear repulsion energy       270.8769430234 Hartrees.
 IExCor= 402 DFT=T Ex=B+HF Corr=LYP ExCW=0 ScaHFX=  0.200000
 ScaDFX=  0.800000  0.720000  1.000000  0.810000
 IRadAn=      0 IRanWt=     -1 IRanGd=            0 ICorTp=0
 NAtoms=   13 NActive=   13 NUniq=   13 SFac= 1.00D+00 NAtFMM=   60 Big=F
 Leave Link  301 at Sun Sep 17 16:57:43 2017, MaxMem=   39321600 cpu:       0.0
 (Enter D:\GMK\G03W(C02)\l302.exe)
 NPDir=0 NMtPBC=     1 NCelOv=     1 NCel=       1 NClECP=     1 NCelD=      1
         NCelK=      1 NCelE2=     1 NClLst=     1 CellRange=     0.0.
 One-electron integrals computed using PRISM.
 NBasis=   135 RedAO= T  NBF=   101    34
 NBsUse=   135 1.00D-06 NBFU=   101    34
 Precomputing XC quadrature grid using
 IXCGrd= 2 IRadAn=           0 IRanWt=          -1 IRanGd=           0.
 NRdTot=     807 NPtTot=      102264 NUsed=      105923 NTot=      105939
 NSgBfM=   135   135   135   135.
 Leave Link  302 at Sun Sep 17 16:57:43 2017, MaxMem=   39321600 cpu:       0.0
 (Enter D:\GMK\G03W(C02)\l303.exe)
 DipDrv:  MaxL=1.
 Leave Link  303 at Sun Sep 17 16:57:43 2017, MaxMem=   39321600 cpu:       0.0
 (Enter D:\GMK\G03W(C02)\l401.exe)
 Initial guess read from the read-write file:
 Guess basis will be translated and rotated to current coordinates.
 Initial guess orbital symmetries:
       Occupied  (A') (A') (A') (A') (A') (A') (A') (A') (A') (A')
                 (A') (A') (A') (A') (A') (A') (A') (A') (A") (A')
                 (A') (A') (A") (A") (A")
       Virtual   (A") (A") (A') (A') (A') (A') (A") (A') (A') (A')
                 (A') (A') (A') (A') (A') (A') (A") (A') (A') (A')
                 (A") (A") (A') (A') (A') (A') (A") (A") (A') (A")
                 (A') (A') (A') (A') (A') (A') (A') (A') (A") (A')
                 (A') (A') (A') (A') (A') (A') (A") (A") (A') (A")
                 (A") (A") (A") (A') (A") (A') (A') (A') (A') (A')
                 (A') (A") (A') (A') (A") (A') (A') (A") (A') (A')
                 (A") (A") (A") (A') (A') (A') (A") (A") (A') (A')
                 (A') (A') (A') (A") (A") (A') (A") (A') (A") (A")
                 (A') (A') (A') (A') (A') (A') (A') (A') (A') (A')
                 (A') (A') (A') (A') (A') (A') (A') (A') (A') (A')
 The electronic state of the initial guess is 1-A'.
 Generating alternative initial guess.
 Harris functional with IExCor=  402 diagonalized for initial guess.
 ExpMin= 1.61D-01 ExpMax= 5.48D+03 ExpMxC= 8.25D+02 IAcc=1 IRadAn=         1 AccDes= 1.00D-06
 HarFok:  IExCor= 402 AccDes= 1.00D-06 IRadAn=         1 IDoV=1
 ScaDFX=  1.000000  1.000000  1.000000  1.000000
 Harris En= -307.609373598578    
 Leave Link  401 at Sun Sep 17 16:57:44 2017, MaxMem=   39321600 cpu:       1.0
 (Enter D:\GMK\G03W(C02)\l502.exe)
 Closed shell SCF:
 Requested convergence on RMS density matrix=1.00D-08 within 128 cycles.
 Requested convergence on MAX density matrix=1.00D-06.
 Requested convergence on             energy=1.00D-06.
 No special actions if energy rises.
 Using DIIS extrapolation, IDIIS=  1040.
 Integral symmetry usage will be decided dynamically.
       105922 words used for storage of precomputed grid.
 IEnd=    183762 IEndB=    183762 NGot=  39321600 MDV=  39172839
 LenX=  39172839
 Fock matrices will be formed incrementally for  20 cycles.
 Integral accuracy reduced to 1.0D-05 until final iterations.

 Cycle   1  Pass 0  IDiag  1:
 Petite list used in FoFDir.
 MinBra= 0 MaxBra= 2 Meth= 1.
 IRaf=       0 NMat=   1 IRICut=       1 DoRegI=T DoRafI=F ISym2E= 1 JSym2E=1.
 E= -307.476396080537    
 DIIS: error= 1.95D-03 at cycle   1 NSaved=   1.
 NSaved= 1 IEnMin= 1 EnMin= -307.476396080537     IErMin= 1 ErrMin= 1.95D-03
 ErrMax= 1.95D-03 EMaxC= 1.00D-01 BMatC= 1.28D-03 BMatP= 1.28D-03
 IDIUse=3 WtCom= 9.81D-01 WtEn= 1.95D-02
 Coeff-Com:  0.100D+01
 Coeff-En:   0.100D+01
 Coeff:      0.100D+01
 Gap=     0.220 Goal=   None    Shift=    0.000
 GapD=    0.220 DampG=1.000 DampE=1.000 DampFc=1.0000 IDamp=-1.
 RMSDP=4.76D-04 MaxDP=9.56D-03              OVMax= 1.17D-02

 Cycle   2  Pass 0  IDiag  1:
 RMSU=  4.76D-04    CP:  1.00D+00
 E= -307.478088409107     Delta-E=       -0.001692328570 Rises=F Damp=F
 DIIS: error= 1.12D-03 at cycle   2 NSaved=   2.
 NSaved= 2 IEnMin= 2 EnMin= -307.478088409107     IErMin= 2 ErrMin= 1.12D-03
 ErrMax= 1.12D-03 EMaxC= 1.00D-01 BMatC= 9.25D-05 BMatP= 1.28D-03
 IDIUse=3 WtCom= 9.89D-01 WtEn= 1.12D-02
 Coeff-Com:  0.103D+00 0.897D+00
 Coeff-En:   0.000D+00 0.100D+01
 Coeff:      0.101D+00 0.899D+00
 Gap=     0.219 Goal=   None    Shift=    0.000
 RMSDP=1.19D-04 MaxDP=4.07D-03 DE=-1.69D-03 OVMax= 6.70D-03

 Cycle   3  Pass 0  IDiag  1:
 RMSU=  1.19D-04    CP:  1.00D+00  1.02D+00
 E= -307.478071834642     Delta-E=        0.000016574465 Rises=F Damp=F
 DIIS: error= 1.07D-03 at cycle   3 NSaved=   3.
 NSaved= 3 IEnMin= 2 EnMin= -307.478088409107     IErMin= 3 ErrMin= 1.07D-03
 ErrMax= 1.07D-03 EMaxC= 1.00D-01 BMatC= 1.10D-04 BMatP= 9.25D-05
 IDIUse=3 WtCom= 2.34D-01 WtEn= 7.66D-01
 Coeff-Com: -0.136D-01 0.524D+00 0.489D+00
 Coeff-En:   0.000D+00 0.546D+00 0.454D+00
 Coeff:     -0.319D-02 0.541D+00 0.462D+00
 Gap=     0.220 Goal=   None    Shift=    0.000
 RMSDP=7.99D-05 MaxDP=2.20D-03 DE= 1.66D-05 OVMax= 4.56D-03

 Cycle   4  Pass 0  IDiag  1:
 RMSU=  4.95D-05    CP:  1.00D+00  1.03D+00  4.75D-01
 E= -307.478162682122     Delta-E=       -0.000090847481 Rises=F Damp=F
 DIIS: error= 1.84D-04 at cycle   4 NSaved=   4.
 NSaved= 4 IEnMin= 4 EnMin= -307.478162682122     IErMin= 4 ErrMin= 1.84D-04
 ErrMax= 1.84D-04 EMaxC= 1.00D-01 BMatC= 2.98D-06 BMatP= 9.25D-05
 IDIUse=3 WtCom= 9.98D-01 WtEn= 1.84D-03
 Coeff-Com: -0.106D-01 0.160D+00 0.211D+00 0.640D+00
 Coeff-En:   0.000D+00 0.000D+00 0.000D+00 0.100D+01
 Coeff:     -0.106D-01 0.160D+00 0.210D+00 0.640D+00
 Gap=     0.220 Goal=   None    Shift=    0.000
 RMSDP=1.98D-05 MaxDP=4.10D-04 DE=-9.08D-05 OVMax= 1.19D-03

 Cycle   5  Pass 0  IDiag  1:
 RMSU=  1.28D-05    CP:  1.00D+00  1.03D+00  5.24D-01  7.19D-01
 E= -307.478164957443     Delta-E=       -0.000002275321 Rises=F Damp=F
 DIIS: error= 7.90D-05 at cycle   5 NSaved=   5.
 NSaved= 5 IEnMin= 5 EnMin= -307.478164957443     IErMin= 5 ErrMin= 7.90D-05
 ErrMax= 7.90D-05 EMaxC= 1.00D-01 BMatC= 5.19D-07 BMatP= 2.98D-06
 IDIUse=1 WtCom= 1.00D+00 WtEn= 0.00D+00
 Coeff-Com: -0.526D-02 0.627D-01 0.940D-01 0.366D+00 0.482D+00
 Coeff:     -0.526D-02 0.627D-01 0.940D-01 0.366D+00 0.482D+00
 Gap=     0.220 Goal=   None    Shift=    0.000
 RMSDP=6.32D-06 MaxDP=1.65D-04 DE=-2.28D-06 OVMax= 3.56D-04

 Initial convergence to 1.0D-05 achieved.  Increase integral accuracy.
 Cycle   6  Pass 1  IDiag  1:
 E= -307.478102339876     Delta-E=        0.000062617567 Rises=F Damp=F
 DIIS: error= 5.05D-05 at cycle   1 NSaved=   1.
 NSaved= 1 IEnMin= 1 EnMin= -307.478102339876     IErMin= 1 ErrMin= 5.05D-05
 ErrMax= 5.05D-05 EMaxC= 1.00D-01 BMatC= 1.05D-07 BMatP= 1.05D-07
 IDIUse=1 WtCom= 1.00D+00 WtEn= 0.00D+00
 Coeff-Com:  0.100D+01
 Coeff:      0.100D+01
 Gap=     0.220 Goal=   None    Shift=    0.000
 RMSDP=6.32D-06 MaxDP=1.65D-04 DE= 6.26D-05 OVMax= 1.95D-04

 Cycle   7  Pass 1  IDiag  1:
 RMSU=  6.83D-06    CP:  1.00D+00
 E= -307.478102361201     Delta-E=       -0.000000021325 Rises=F Damp=F
 DIIS: error= 4.07D-05 at cycle   2 NSaved=   2.
 NSaved= 2 IEnMin= 2 EnMin= -307.478102361201     IErMin= 2 ErrMin= 4.07D-05
 ErrMax= 4.07D-05 EMaxC= 1.00D-01 BMatC= 1.03D-07 BMatP= 1.05D-07
 IDIUse=1 WtCom= 1.00D+00 WtEn= 0.00D+00
 Coeff-Com:  0.497D+00 0.503D+00
 Coeff:      0.497D+00 0.503D+00
 Gap=     0.220 Goal=   None    Shift=    0.000
 RMSDP=3.44D-06 MaxDP=7.47D-05 DE=-2.13D-08 OVMax= 2.09D-04

 Cycle   8  Pass 1  IDiag  1:
 RMSU=  3.09D-06    CP:  1.00D+00  7.79D-01
 E= -307.478102448550     Delta-E=       -0.000000087348 Rises=F Damp=F
 DIIS: error= 1.93D-05 at cycle   3 NSaved=   3.
 NSaved= 3 IEnMin= 3 EnMin= -307.478102448550     IErMin= 3 ErrMin= 1.93D-05
 ErrMax= 1.93D-05 EMaxC= 1.00D-01 BMatC= 2.11D-08 BMatP= 1.03D-07
 IDIUse=1 WtCom= 1.00D+00 WtEn= 0.00D+00
 Coeff-Com: -0.610D-02 0.309D+00 0.697D+00
 Coeff:     -0.610D-02 0.309D+00 0.697D+00
 Gap=     0.220 Goal=   None    Shift=    0.000
 RMSDP=1.20D-06 MaxDP=2.62D-05 DE=-8.73D-08 OVMax= 6.98D-05

 Cycle   9  Pass 1  IDiag  1:
 RMSU=  4.42D-07    CP:  1.00D+00  8.70D-01  6.98D-01
 E= -307.478102471058     Delta-E=       -0.000000022509 Rises=F Damp=F
 DIIS: error= 2.38D-06 at cycle   4 NSaved=   4.
 NSaved= 4 IEnMin= 4 EnMin= -307.478102471058     IErMin= 4 ErrMin= 2.38D-06
 ErrMax= 2.38D-06 EMaxC= 1.00D-01 BMatC= 9.56D-10 BMatP= 2.11D-08
 IDIUse=1 WtCom= 1.00D+00 WtEn= 0.00D+00
 Coeff-Com: -0.137D-01 0.169D+00 0.405D+00 0.440D+00
 Coeff:     -0.137D-01 0.169D+00 0.405D+00 0.440D+00
 Gap=     0.220 Goal=   None    Shift=    0.000
 RMSDP=2.55D-07 MaxDP=6.42D-06 DE=-2.25D-08 OVMax= 1.46D-05

 Cycle  10  Pass 1  IDiag  1:
 RMSU=  1.34D-07    CP:  1.00D+00  8.67D-01  7.19D-01  5.34D-01
 E= -307.478102472036     Delta-E=       -0.000000000978 Rises=F Damp=F
 DIIS: error= 6.62D-07 at cycle   5 NSaved=   5.
 NSaved= 5 IEnMin= 5 EnMin= -307.478102472036     IErMin= 5 ErrMin= 6.62D-07
 ErrMax= 6.62D-07 EMaxC= 1.00D-01 BMatC= 3.03D-11 BMatP= 9.56D-10
 IDIUse=1 WtCom= 1.00D+00 WtEn= 0.00D+00
 Coeff-Com: -0.525D-02 0.500D-01 0.122D+00 0.195D+00 0.638D+00
 Coeff:     -0.525D-02 0.500D-01 0.122D+00 0.195D+00 0.638D+00
 Gap=     0.220 Goal=   None    Shift=    0.000
 RMSDP=4.72D-08 MaxDP=1.57D-06 DE=-9.78D-10 OVMax= 2.46D-06

 Cycle  11  Pass 1  IDiag  1:
 RMSU=  3.16D-08    CP:  1.00D+00  8.68D-01  7.16D-01  5.60D-01  7.70D-01
 E= -307.478102472087     Delta-E=       -0.000000000051 Rises=F Damp=F
 DIIS: error= 1.96D-07 at cycle   6 NSaved=   6.
 NSaved= 6 IEnMin= 6 EnMin= -307.478102472087     IErMin= 6 ErrMin= 1.96D-07
 ErrMax= 1.96D-07 EMaxC= 1.00D-01 BMatC= 4.56D-12 BMatP= 3.03D-11
 IDIUse=1 WtCom= 1.00D+00 WtEn= 0.00D+00
 Coeff-Com: -0.155D-02 0.109D-01 0.269D-01 0.623D-01 0.336D+00 0.566D+00
 Coeff:     -0.155D-02 0.109D-01 0.269D-01 0.623D-01 0.336D+00 0.566D+00
 Gap=     0.220 Goal=   None    Shift=    0.000
 RMSDP=1.60D-08 MaxDP=4.20D-07 DE=-5.09D-11 OVMax= 4.92D-07

 Cycle  12  Pass 1  IDiag  1:
 RMSU=  1.12D-08    CP:  1.00D+00  8.68D-01  7.17D-01  5.61D-01  7.96D-01
                    CP:  6.69D-01
 E= -307.478102472179     Delta-E=       -0.000000000092 Rises=F Damp=F
 DIIS: error= 3.68D-08 at cycle   7 NSaved=   7.
 NSaved= 7 IEnMin= 7 EnMin= -307.478102472179     IErMin= 7 ErrMin= 3.68D-08
 ErrMax= 3.68D-08 EMaxC= 1.00D-01 BMatC= 2.38D-13 BMatP= 4.56D-12
 IDIUse=1 WtCom= 1.00D+00 WtEn= 0.00D+00
 Coeff-Com: -0.295D-03 0.130D-02 0.292D-02 0.113D-01 0.934D-01 0.241D+00
 Coeff-Com:  0.650D+00
 Coeff:     -0.295D-03 0.130D-02 0.292D-02 0.113D-01 0.934D-01 0.241D+00
 Coeff:      0.650D+00
 Gap=     0.220 Goal=   None    Shift=    0.000
 RMSDP=5.39D-09 MaxDP=1.29D-07 DE=-9.21D-11 OVMax= 3.55D-07

 SCF Done:  E(RB+HF-LYP) =  -307.478102472     A.U. after   12 cycles
             Convg  =    0.5389D-08             -V/T =  2.0095
             S**2   =   0.0000
 KE= 3.045934465034D+02 PE=-1.256882283275D+03 EE= 3.739337912763D+02
 Leave Link  502 at Sun Sep 17 16:58:09 2017, MaxMem=   39321600 cpu:      25.0
 (Enter D:\GMK\G03W(C02)\l701.exe)
 Compute integral first derivatives.
 ... and contract with generalized density number  0.
 Leave Link  701 at Sun Sep 17 16:58:09 2017, MaxMem=   39321600 cpu:       0.0
 (Enter D:\GMK\G03W(C02)\l702.exe)
 L702 exits ... SP integral derivatives will be done elsewhere.
 Leave Link  702 at Sun Sep 17 16:58:09 2017, MaxMem=   39321600 cpu:       0.0
 (Enter D:\GMK\G03W(C02)\l703.exe)
 Compute integral first derivatives, UseDBF=F.
 Integral derivatives from FoFDir, PRISM(SPDF).
 Petite list used in FoFDir.
 MinBra= 0 MaxBra= 2 Meth= 1.
 IRaf=       0 NMat=   1 IRICut=       1 DoRegI=T DoRafI=F ISym2E= 1 JSym2E=1.
 Leave Link  703 at Sun Sep 17 16:58:19 2017, MaxMem=   39321600 cpu:       9.0
 (Enter D:\GMK\G03W(C02)\l716.exe)
 Dipole        =-5.22126465D-01-4.88820979D-02 1.42983191D-17
 ***** Axes restored to original set *****
 -------------------------------------------------------------------
 Center     Atomic                   Forces (Hartrees/Bohr)
 Number     Number              X              Y              Z
 -------------------------------------------------------------------
    1          6           0.000362624    0.000490562   -0.013043519
    2          6          -0.002288670   -0.003096145    0.006255390
    3          6           0.000178107    0.000240945    0.002532912
    4          1           0.000561690    0.000759863   -0.000630845
    5          1           0.000050764    0.000068674   -0.000402067
    6          6           0.000152288    0.000206017   -0.000825854
    7          6          -0.000776080   -0.001049893   -0.000028070
    8          1          -0.000223707   -0.000302634    0.000485770
    9          1           0.000164802    0.000222947   -0.000075576
   10          6           0.000086089    0.000116463    0.001152374
   11          1          -0.000051975   -0.000070312   -0.000289034
   12          8           0.001904906    0.002576984    0.009439909
   13          1          -0.000120838   -0.000163472   -0.004571389
 -------------------------------------------------------------------
 Cartesian Forces:  Max     0.013043519 RMS     0.003025949
 Leave Link  716 at Sun Sep 17 16:58:19 2017, MaxMem=   39321600 cpu:       0.0
 (Enter D:\GMK\G03W(C02)\l103.exe)

 GradGradGradGradGradGradGradGradGradGradGradGradGradGradGradGradGradGrad
 Berny optimization.
 Internal  Forces:  Max     0.008035309 RMS     0.001615998
 Search for a local minimum.
 Step number   2 out of a maximum of  68
 All quantities printed in internal units (Hartrees-Bohrs-Radians)
 Update second derivatives using D2CorX and points  1  2
 Trust test= 1.04D+00 RLast= 1.42D-01 DXMaxT set to 4.24D-01
     Eigenvalues ---    0.01163   0.01964   0.02137   0.02137   0.02137
     Eigenvalues ---    0.02137   0.02137   0.02137   0.02137   0.02137
     Eigenvalues ---    0.15676   0.16000   0.16000   0.16000   0.16000
     Eigenvalues ---    0.17120   0.21830   0.22089   0.23441   0.26033
     Eigenvalues ---    0.34222   0.35238   0.35238   0.35238   0.35243
     Eigenvalues ---    0.35468   0.41945   0.43121   0.46224   0.46234
     Eigenvalues ---    0.46234   0.48244   0.542901000.000001000.00000
     Eigenvalues --- 1000.000001000.000001000.000001000.000001000.00000
     Eigenvalues --- 1000.000001000.000001000.000001000.000001000.00000
     Eigenvalues --- 1000.000001000.000001000.000001000.000001000.00000
     Eigenvalues --- 1000.000001000.000001000.000001000.000001000.00000
     Eigenvalues --- 1000.000001000.000001000.00000
 RFO step:  Lambda=-6.65543968D-04.
 Quartic linear search produced a step of  0.00835.
 Iteration  1 RMS(Cart)=  0.01131768 RMS(Int)=  0.00029894
 Iteration  2 RMS(Cart)=  0.00026245 RMS(Int)=  0.00000359
 Iteration  3 RMS(Cart)=  0.00000003 RMS(Int)=  0.00000359
 Variable       Old X    -DE/DX   Delta X   Delta X   Delta X     New X
                                 (Linear)    (Quad)   (Total)
    R1        2.62860   0.00564  -0.00008   0.01171   0.01163   2.64023
    R2        2.63997   0.00126   0.00001   0.00310   0.00312   2.64309
    R3        2.60812  -0.00497  -0.00094  -0.02273  -0.02368   2.58444
    R4        2.05084  -0.00048  -0.00002  -0.00157  -0.00159   2.04925
    R5        2.63532  -0.00025  -0.00003  -0.00077  -0.00080   2.63451
    R6        2.05549   0.00028   0.00002   0.00102   0.00104   2.05653
    R7        2.63609   0.00067  -0.00002   0.00115   0.00114   2.63723
    R8        2.05115   0.00057  -0.00001   0.00146   0.00145   2.05260
    R9        2.64049  -0.00032   0.00002  -0.00079  -0.00078   2.63971
   R10        2.05184   0.00020  -0.00001   0.00048   0.00048   2.05231
   R11        2.63749  -0.00004  -0.00001  -0.00051  -0.00053   2.63696
   R12        2.05190  -0.00029  -0.00001  -0.00091  -0.00092   2.05098
   R13        1.82464   0.00125  -0.00001   0.00222   0.00221   1.82685
    A1        2.11063  -0.00325   0.00014  -0.01079  -0.01064   2.09999
    A2        2.04574   0.00128  -0.00041   0.00044   0.00003   2.04577
    A3        2.12682   0.00196   0.00027   0.01034   0.01061   2.13743
    A4        2.08895  -0.00182  -0.00005  -0.01088  -0.01092   2.07802
    A5        2.07812   0.00154  -0.00014   0.00618   0.00605   2.08416
    A6        2.11612   0.00028   0.00018   0.00470   0.00488   2.12100
    A7        2.09814  -0.00068   0.00003  -0.00335  -0.00333   2.09481
    A8        2.08537   0.00073  -0.00008   0.00262   0.00255   2.08792
    A9        2.09968  -0.00005   0.00004   0.00074   0.00078   2.10046
   A10        2.08070   0.00023  -0.00011   0.00057   0.00046   2.08117
   A11        2.10773   0.00004   0.00011   0.00071   0.00081   2.10854
   A12        2.09475  -0.00027   0.00000  -0.00129  -0.00128   2.09347
   A13        2.08764  -0.00087  -0.00006  -0.00435  -0.00440   2.08323
   A14        2.09831   0.00132   0.00003   0.00522   0.00525   2.10356
   A15        2.09724  -0.00045   0.00002  -0.00087  -0.00085   2.09640
   A16        2.08622  -0.00037  -0.00007  -0.00394  -0.00402   2.08220
   A17        2.09941   0.00010   0.00004   0.00149   0.00154   2.10095
   A18        2.09755   0.00028   0.00003   0.00245   0.00248   2.10003
   A19        1.85492   0.00804  -0.00040   0.04629   0.04590   1.90082
    D1        3.14159   0.00000   0.00000   0.00000   0.00000   3.14159
    D2        0.00000   0.00000   0.00000   0.00000   0.00000   0.00000
    D3        0.00000   0.00000   0.00000   0.00000   0.00000   0.00000
    D4       -3.14159   0.00000   0.00000   0.00000   0.00000   3.14159
    D5        3.14159   0.00000   0.00000   0.00000   0.00000   3.14159
    D6        0.00000   0.00000   0.00000   0.00000   0.00000   0.00000
    D7        0.00000   0.00000   0.00000   0.00000   0.00000   0.00000
    D8        3.14159   0.00000   0.00000   0.00000   0.00000   3.14159
    D9       -3.14159   0.00000   0.00000   0.00000   0.00000   3.14159
   D10        0.00000   0.00000   0.00000   0.00000   0.00000   0.00000
   D11        3.14159   0.00000   0.00000   0.00000   0.00000   3.14159
   D12        0.00000   0.00000   0.00000   0.00000   0.00000   0.00000
   D13        0.00000   0.00000   0.00000   0.00000   0.00000   0.00000
   D14        3.14159   0.00000   0.00000   0.00000   0.00000   3.14159
   D15        3.14159   0.00000   0.00000   0.00000   0.00000   3.14159
   D16        0.00000   0.00000   0.00000   0.00000   0.00000   0.00000
   D17        0.00000   0.00000   0.00000   0.00000   0.00000   0.00000
   D18        3.14159   0.00000   0.00000   0.00000   0.00000   3.14159
   D19        0.00000   0.00000   0.00000   0.00000   0.00000   0.00000
   D20        3.14159   0.00000   0.00000   0.00000   0.00000  -3.14159
   D21        3.14159   0.00000   0.00000   0.00000   0.00000   3.14159
   D22        0.00000   0.00000   0.00000   0.00000   0.00000   0.00000
   D23        0.00000   0.00000   0.00000   0.00000   0.00000   0.00000
   D24        3.14159   0.00000   0.00000   0.00000   0.00000   3.14159
   D25        3.14159   0.00000   0.00000   0.00000   0.00000   3.14159
   D26        0.00000   0.00000   0.00000   0.00000   0.00000   0.00000
         Item               Value     Threshold  Converged?
 Maximum Force            0.008035     0.000450     NO 
 RMS     Force            0.001616     0.000300     NO 
 Maximum Displacement     0.071641     0.001800     NO 
 RMS     Displacement     0.011339     0.001200     NO 
 Predicted change in Energy=-3.344101D-04
 GradGradGradGradGradGradGradGradGradGradGradGradGradGradGradGradGradGrad

 Leave Link  103 at Sun Sep 17 16:58:19 2017, MaxMem=   39321600 cpu:       0.0
 (Enter D:\GMK\G03W(C02)\l202.exe)
                          Input orientation:                          
 ---------------------------------------------------------------------
 Center     Atomic     Atomic              Coordinates (Angstroms)
 Number     Number      Type              X           Y           Z
 ---------------------------------------------------------------------
    1          6             0       -0.360127   -0.362806   -0.791253
    2          6             0       -1.082826   -1.340483   -0.102859
    3          6             0        0.358723    0.609665   -0.088532
    4          1             0       -1.632920   -2.084657   -0.668157
    5          1             0        0.919989    1.368954   -0.629629
    6          6             0       -1.081302   -1.338421    1.291263
    7          6             0        0.351025    0.599252    1.306970
    8          1             0       -1.644098   -2.099780    1.823612
    9          1             0        0.910713    1.356405    1.848217
   10          6             0       -0.367371   -0.372605    2.004538
   11          1             0       -0.371086   -0.377630    3.089853
   12          8             0       -0.392827   -0.407042   -2.157773
   13          1             0        0.142880    0.317671   -2.507584
 ---------------------------------------------------------------------
                    Distance matrix (angstroms):
                    1          2          3          4          5
     1  C    0.000000
     2  C    1.397152   0.000000
     3  C    1.398664   2.425149   0.000000
     4  H    2.144744   1.084416   3.400291   0.000000
     5  H    2.159586   3.410250   1.088267   4.294910   0.000000
     6  C    2.410144   1.394125   2.787929   2.168059   3.876193
     7  C    2.415333   2.793944   1.395562   3.878213   2.160226
     8  H    3.391634   2.145425   3.874104   2.491840   4.962363
     9  H    3.396693   3.879962   2.147862   4.964183   2.477896
    10  C    2.795818   2.426888   2.423429   3.417021   3.410155
    11  H    3.881150   3.409850   3.407272   4.316110   4.307201
    12  O    1.367627   2.360103   2.424929   2.563432   2.685679
    13  H    1.913598   3.167733   2.446152   3.508295   2.288189
                    6          7          8          9         10
     6  C    0.000000
     7  C    2.409644   0.000000
     8  H    1.086187   3.395911   0.000000
     9  H    3.397118   1.086038   4.298009   0.000000
    10  C    1.396874   1.395421   2.155435   2.155785   0.000000
    11  H    2.159271   2.157409   2.487917   2.488281   1.085334
    12  O    3.638313   3.683801   4.503607   4.566938   4.162531
    13  H    4.321169   3.830592   5.272250   4.543296   4.593047
                   11         12         13
    11  H    0.000000
    12  O    5.247754   0.000000
    13  H    5.663825   0.966725   0.000000
 Stoichiometry    C6H6O
 Framework group  CS[SG(C6H6O)]
 Deg. of freedom    23
 Full point group                 CS      NOp   2
 Largest Abelian subgroup         CS      NOp   2
 Largest concise Abelian subgroup C1      NOp   1
                         Standard orientation:                         
 ---------------------------------------------------------------------
 Center     Atomic     Atomic              Coordinates (Angstroms)
 Number     Number      Type              X           Y           Z
 ---------------------------------------------------------------------
    1          6             0        0.000000    0.939557    0.000000
    2          6             0        1.218198    0.255432    0.000000
    3          6             0       -1.206843    0.232597    0.000000
    4          1             0        2.141627    0.823973    0.000000
    5          1             0       -2.152949    0.770379    0.000000
    6          6             0        1.220524   -1.138691    0.000000
    7          6             0       -1.188999   -1.162851    0.000000
    8          1             0        2.169174   -1.667715    0.000000
    9          1             0       -2.128652   -1.707398    0.000000
   10          6             0        0.021994   -1.856174    0.000000
   11          1             0        0.032050   -2.941461    0.000000
   12          8             0        0.050215    2.306262    0.000000
   13          1             0       -0.852222    2.652908    0.000000
 ---------------------------------------------------------------------
 Rotational constants (GHZ):      5.6468192      2.6181882      1.7887988
 Leave Link  202 at Sun Sep 17 16:58:20 2017, MaxMem=   39321600 cpu:       0.0
 (Enter D:\GMK\G03W(C02)\l301.exe)
 Standard basis: 6-31G(d,p) (6D, 7F)
 There are   101 symmetry adapted basis functions of A'  symmetry.
 There are    34 symmetry adapted basis functions of A"  symmetry.
 Integral buffers will be    262144 words long.
 Raffenetti 2 integral format.
 Two-electron integral symmetry is turned on.
   135 basis functions,   238 primitive gaussians,   135 cartesian basis functions
    25 alpha electrons       25 beta electrons
       nuclear repulsion energy       270.8930263260 Hartrees.
 IExCor= 402 DFT=T Ex=B+HF Corr=LYP ExCW=0 ScaHFX=  0.200000
 ScaDFX=  0.800000  0.720000  1.000000  0.810000
 IRadAn=      0 IRanWt=     -1 IRanGd=            0 ICorTp=0
 NAtoms=   13 NActive=   13 NUniq=   13 SFac= 1.00D+00 NAtFMM=   60 Big=F
 Leave Link  301 at Sun Sep 17 16:58:20 2017, MaxMem=   39321600 cpu:       0.0
 (Enter D:\GMK\G03W(C02)\l302.exe)
 NPDir=0 NMtPBC=     1 NCelOv=     1 NCel=       1 NClECP=     1 NCelD=      1
         NCelK=      1 NCelE2=     1 NClLst=     1 CellRange=     0.0.
 One-electron integrals computed using PRISM.
 NBasis=   135 RedAO= T  NBF=   101    34
 NBsUse=   135 1.00D-06 NBFU=   101    34
 Precomputing XC quadrature grid using
 IXCGrd= 2 IRadAn=           0 IRanWt=          -1 IRanGd=           0.
 NRdTot=     807 NPtTot=      102264 NUsed=      105923 NTot=      105939
 NSgBfM=   135   135   135   135.
 Leave Link  302 at Sun Sep 17 16:58:20 2017, MaxMem=   39321600 cpu:       0.0
 (Enter D:\GMK\G03W(C02)\l303.exe)
 DipDrv:  MaxL=1.
 Leave Link  303 at Sun Sep 17 16:58:20 2017, MaxMem=   39321600 cpu:       0.0
 (Enter D:\GMK\G03W(C02)\l401.exe)
 Initial guess read from the read-write file:
 Guess basis will be translated and rotated to current coordinates.
 Initial guess orbital symmetries:
       Occupied  (A') (A') (A') (A') (A') (A') (A') (A') (A') (A')
                 (A') (A') (A') (A') (A') (A') (A') (A') (A") (A')
                 (A') (A') (A") (A") (A")
       Virtual   (A") (A") (A') (A') (A') (A') (A") (A') (A') (A')
                 (A') (A') (A') (A') (A') (A') (A") (A') (A') (A')
                 (A") (A") (A') (A') (A') (A') (A") (A") (A') (A")
                 (A') (A') (A') (A') (A') (A') (A') (A') (A") (A')
                 (A') (A') (A') (A') (A') (A') (A") (A") (A') (A")
                 (A") (A") (A") (A') (A") (A') (A') (A') (A') (A')
                 (A') (A") (A') (A') (A") (A') (A') (A") (A') (A')
                 (A") (A") (A') (A") (A') (A') (A") (A") (A') (A')
                 (A') (A') (A') (A") (A") (A') (A") (A') (A") (A')
                 (A") (A') (A') (A') (A') (A') (A') (A') (A') (A')
                 (A') (A') (A') (A') (A') (A') (A') (A') (A') (A')
 The electronic state of the initial guess is 1-A'.
 Generating alternative initial guess.
 Harris functional with IExCor=  402 diagonalized for initial guess.
 ExpMin= 1.61D-01 ExpMax= 5.48D+03 ExpMxC= 8.25D+02 IAcc=1 IRadAn=         1 AccDes= 1.00D-06
 HarFok:  IExCor= 402 AccDes= 1.00D-06 IRadAn=         1 IDoV=1
 ScaDFX=  1.000000  1.000000  1.000000  1.000000
[...]
    D7        0.00000   0.00000   0.00000   0.00000   0.00000   0.00000
    D8        3.14159   0.00000   0.00000   0.00000   0.00000   3.14159
    D9        3.14159   0.00000   0.00000   0.00000   0.00000   3.14159
   D10        0.00000   0.00000   0.00000   0.00000   0.00000   0.00000
   D11        3.14159   0.00000   0.00000   0.00000   0.00000  -3.14159
   D12        0.00000   0.00000   0.00000   0.00000   0.00000   0.00000
   D13        0.00000   0.00000   0.00000   0.00000   0.00000   0.00000
   D14        3.14159   0.00000   0.00000   0.00000   0.00000   3.14159
   D15        3.14159   0.00000   0.00000   0.00000   0.00000   3.14159
   D16        0.00000   0.00000   0.00000   0.00000   0.00000   0.00000
   D17        0.00000   0.00000   0.00000   0.00000   0.00000   0.00000
   D18        3.14159   0.00000   0.00000   0.00000   0.00000   3.14159
   D19        0.00000   0.00000   0.00000   0.00000   0.00000   0.00000
   D20        3.14159   0.00000   0.00000   0.00000   0.00000   3.14159
   D21        3.14159   0.00000   0.00000   0.00000   0.00000   3.14159
   D22        0.00000   0.00000   0.00000   0.00000   0.00000   0.00000
   D23        0.00000   0.00000   0.00000   0.00000   0.00000   0.00000
   D24        3.14159   0.00000   0.00000   0.00000   0.00000   3.14159
   D25        3.14159   0.00000   0.00000   0.00000   0.00000   3.14159
   D26        0.00000   0.00000   0.00000   0.00000   0.00000   0.00000
         Item               Value     Threshold  Converged?
 Maximum Force            0.000282     0.000450     YES
 RMS     Force            0.000067     0.000300     YES
 Maximum Displacement     0.000881     0.001800     YES
 RMS     Displacement     0.000229     0.001200     YES
 Predicted change in Energy=-5.450398D-07
 Optimization completed.
    -- Stationary point found.
                           ----------------------------
                           !   Optimized Parameters   !
                           ! (Angstroms and Degrees)  !
 --------------------------                            --------------------------
 ! Name  Definition              Value          Derivative Info.                !
 --------------------------------------------------------------------------------
 ! R1    R(1,2)                  1.399          -DE/DX =    0.0002              !
 ! R2    R(1,3)                  1.3991         -DE/DX =   -0.0002              !
 ! R3    R(1,12)                 1.368          -DE/DX =   -0.0001              !
 ! R4    R(2,4)                  1.0848         -DE/DX =    0.0001              !
 ! R5    R(2,6)                  1.393          -DE/DX =   -0.0003              !
 ! R6    R(3,5)                  1.0881         -DE/DX =    0.0001              !
 ! R7    R(3,7)                  1.3954         -DE/DX =    0.0001              !
 ! R8    R(6,8)                  1.0863         -DE/DX =    0.0                 !
 ! R9    R(6,10)                 1.3974         -DE/DX =    0.0002              !
 ! R10   R(7,9)                  1.0863         -DE/DX =    0.0                 !
 ! R11   R(7,10)                 1.395          -DE/DX =   -0.0001              !
 ! R12   R(10,11)                1.0853         -DE/DX =    0.0                 !
 ! R13   R(12,13)                0.9661         -DE/DX =    0.0                 !
 ! A1    A(2,1,3)              120.0779         -DE/DX =   -0.0001              !
 ! A2    A(2,1,12)             117.3292         -DE/DX =    0.0                 !
 ! A3    A(3,1,12)             122.5929         -DE/DX =    0.0                 !
 ! A4    A(1,2,4)              118.8946         -DE/DX =   -0.0001              !
 ! A5    A(1,2,6)              119.5663         -DE/DX =    0.0001              !
 ! A6    A(4,2,6)              121.5391         -DE/DX =    0.0                 !
 ! A7    A(1,3,5)              119.9296         -DE/DX =    0.0                 !
 ! A8    A(1,3,7)              119.7551         -DE/DX =    0.0                 !
 ! A9    A(5,3,7)              120.3153         -DE/DX =    0.0                 !
 ! A10   A(2,6,8)              119.2458         -DE/DX =    0.0                 !
 ! A11   A(2,6,10)             120.7819         -DE/DX =    0.0                 !
 ! A12   A(8,6,10)             119.9722         -DE/DX =    0.0                 !
 ! A13   A(3,7,9)              119.3163         -DE/DX =    0.0                 !
 ! A14   A(3,7,10)             120.5325         -DE/DX =    0.0                 !
 ! A15   A(9,7,10)             120.1512         -DE/DX =    0.0                 !
 ! A16   A(6,10,7)             119.2863         -DE/DX =    0.0                 !
 ! A17   A(6,10,11)            120.3895         -DE/DX =    0.0                 !
 ! A18   A(7,10,11)            120.3242         -DE/DX =    0.0                 !
 ! A19   A(1,12,13)            109.0329         -DE/DX =   -0.0001              !
 ! D1    D(3,1,2,4)            180.0            -DE/DX =    0.0                 !
 ! D2    D(3,1,2,6)              0.0            -DE/DX =    0.0                 !
 ! D3    D(12,1,2,4)             0.0            -DE/DX =    0.0                 !
 ! D4    D(12,1,2,6)           180.0            -DE/DX =    0.0                 !
 ! D5    D(2,1,3,5)            180.0            -DE/DX =    0.0                 !
 ! D6    D(2,1,3,7)              0.0            -DE/DX =    0.0                 !
 ! D7    D(12,1,3,5)             0.0            -DE/DX =    0.0                 !
 ! D8    D(12,1,3,7)           180.0            -DE/DX =    0.0                 !
 ! D9    D(2,1,12,13)          180.0            -DE/DX =    0.0                 !
 ! D10   D(3,1,12,13)            0.0            -DE/DX =    0.0                 !
 ! D11   D(1,2,6,8)           -180.0            -DE/DX =    0.0                 !
 ! D12   D(1,2,6,10)             0.0            -DE/DX =    0.0                 !
 ! D13   D(4,2,6,8)              0.0            -DE/DX =    0.0                 !
 ! D14   D(4,2,6,10)           180.0            -DE/DX =    0.0                 !
 ! D15   D(1,3,7,9)            180.0            -DE/DX =    0.0                 !
 ! D16   D(1,3,7,10)             0.0            -DE/DX =    0.0                 !
 ! D17   D(5,3,7,9)              0.0            -DE/DX =    0.0                 !
 ! D18   D(5,3,7,10)           180.0            -DE/DX =    0.0                 !
 ! D19   D(2,6,10,7)             0.0            -DE/DX =    0.0                 !
 ! D20   D(2,6,10,11)          180.0            -DE/DX =    0.0                 !
 ! D21   D(8,6,10,7)           180.0            -DE/DX =    0.0                 !
 ! D22   D(8,6,10,11)            0.0            -DE/DX =    0.0                 !
 ! D23   D(3,7,10,6)             0.0            -DE/DX =    0.0                 !
 ! D24   D(3,7,10,11)          180.0            -DE/DX =    0.0                 !
 ! D25   D(9,7,10,6)           180.0            -DE/DX =    0.0                 !
 ! D26   D(9,7,10,11)            0.0            -DE/DX =    0.0                 !
 --------------------------------------------------------------------------------
 GradGradGradGradGradGradGradGradGradGradGradGradGradGradGradGradGradGrad

 Leave Link  103 at Sun Sep 17 17:03:32 2017, MaxMem=   39321600 cpu:       0.0
 (Enter D:\GMK\G03W(C02)\l9999.exe)
 1|1|UNPC-UNK|Freq|RB3LYP|6-31G(d,p)|C6H6O1|PCUSER|17-Sep-2017|0||#P GE
 OM=ALLCHECK GUESS=READ SCRF=CHECK GENCHK RB3LYP/6-31G(D,P) FREQ||pheno
 l B3LYP/6-31G**||0,1|C,-0.0016017897,-0.0021669241,-0.9413523298|C,-0.
 7244038304,-0.9799839229,-0.2495304082|C,0.716551614,0.9693613316,-0.2
 358115177|H,-1.2743942478,-1.7240188717,-0.815803718|H,1.277921519,1.7
 28790615,-0.7763610942|C,-0.7233723254,-0.9785884882,1.1434584305|C,0.
 7088887689,0.9589949244,1.1595402638|H,-1.2864038001,-1.740265567,1.67
 53672245|H,1.2689487961,1.7166521862,1.7001319878|C,-0.0092181389,-0.0
 12470431,1.8571064917|H,-0.0128329975,-0.0173606639,2.9423571982|O,-0.
 0343574603,-0.0464792663,-2.3082845267|H,0.500554622,0.6771574937,-2.6
 598809672||Version=IA32W-G03RevC.02|State=1-A'|HF=-307.4784691|RMSD=3.
 812e-009|RMSF=1.481e-004|Dipole=0.3120381,0.4221296,-0.0244602|DipoleD
 eriv=0.122201,-0.047627,-0.0026821,-0.047627,0.0929763,-0.0036284,-0.0
 290318,-0.0392746,1.4516492,-0.0913212,0.0858132,0.1570846,0.0858132,-
 0.0386649,0.2125063,-0.0069889,-0.0094546,-0.2576771,-0.1060623,0.0982
 467,-0.170122,0.0982467,-0.0457767,-0.2301434,0.0249642,0.0337719,-0.2
 631089,0.0711628,-0.0717461,-0.0378471,-0.0717461,0.0271383,-0.0512002
 ,-0.0401091,-0.0542602,0.023957,0.0576431,-0.084345,0.0520053,-0.08434
 5,0.0058878,0.0703535,0.06065,0.0820482,-0.0314789,0.0017919,0.1326433
 ,-0.0277139,0.1326433,0.0831837,-0.0374918,0.0389629,0.0527096,0.15475
 71,0.0006191,0.126593,0.0409801,0.126593,0.0782984,0.0554384,-0.057163
 5,-0.0773316,0.1248755,0.0433095,-0.085942,0.0460719,-0.085942,-0.0094
 258,0.0623267,0.0448952,0.0607349,0.0196163,0.0440284,-0.0858915,-0.04
 77384,-0.0858915,-0.0086758,-0.0645813,-0.0422715,-0.0571854,0.0174385
 ,-0.1860264,-0.0529995,-0.0123613,-0.0529995,-0.2185476,-0.0167225,0.0
 058951,0.0079749,0.0115353,0.0955974,-0.030656,0.0007538,-0.030656,0.0
 767864,0.0010197,0.000512,0.0006926,-0.1144333,-0.3158957,0.1189949,-0
 .0114477,0.1189949,-0.2428786,-0.0154866,0.0241312,0.0326451,-1.517002
 ,0.2629523,-0.103084,0.013017,-0.103084,0.1996984,0.0176096,-0.024446,
 -0.0330709,0.3798712|Polar=41.2608089,24.3172707,56.1822431,-1.0567847
 ,-1.4296335,81.871431|PG=CS [SG(C6H6O1)]|NImag=0||0.35191074,0.2676155
 3,0.51612356,-0.00657367,-0.00889295,0.69872846,-0.14445807,-0.1065943
 3,0.06567519,0.33115090,-0.10659433,-0.20986591,0.08884635,0.28470595,
 0.50585066,0.02200753,0.02977210,-0.15643080,0.02211166,0.02991297,0.7
 2236436,-0.14064071,-0.10607266,-0.06731524,-0.01233762,-0.02664889,0.
 01206364,0.32460293,-0.10607266,-0.20572845,-0.09106502,-0.02664889,-0
 .02868977,0.01631986,0.28376392,0.49872464,-0.02046370,-0.02768359,-0.
 16498747,-0.01316662,-0.01781199,0.05828082,-0.01867486,-0.02526362,0.
 70571279,-0.00410411,-0.01125139,-0.01110241,-0.11607963,-0.11234676,-
 0.07364426,0.00224265,-0.00395325,0.00240567,0.11491459,-0.01125139,-0
 .01100813,-0.01501950,-0.11234676,-0.18501725,-0.09962701,-0.00395325,
 -0.00018312,0.00325442,0.12311477,0.19045962,0.00838628,0.01134508,0.0
 1088844,-0.07477922,-0.10116240,-0.13381943,0.00171032,0.00231374,-0.0
 0149149,0.08083574,0.10935575,0.13770034,-0.00505954,-0.01058654,0.011
 54300,0.00214476,-0.00393760,-0.00265926,-0.11354044,-0.11321934,0.068
 65153,-0.00026353,-0.00062317,0.00054167,0.11380862,-0.01058654,-0.011
 55559,0.01561554,-0.00393760,-0.00027142,-0.00359748,-0.11321934,-0.18
 301349,0.09287277,-0.00062317,-0.00064592,0.00073278,0.12450219,0.1902
 0499,-0.00829969,-0.01122794,0.00703794,-0.00193518,-0.00261793,-0.000
 95142,0.06860916,0.09281546,-0.12381087,-0.00042501,-0.00057496,0.0005
 7776,-0.07522206,-0.10176148,0.12953411,0.01484168,0.01921754,0.017492
 84,-0.08089312,-0.03532889,0.01856119,-0.00945132,-0.00663644,-0.01780
 241,0.00264050,0.00167581,-0.01687468,-0.00020330,0.00027182,-0.000436
 66,0.34124854,0.01921754,0.02663385,0.02366457,-0.03532889,-0.10257144
 ,0.02510985,-0.00663644,-0.01352354,-0.02408336,0.00167581,0.00366880,
 -0.02282831,0.00027182,-0.00003651,-0.00059072,0.28229865,0.51447114,0
 .04880020,0.06601761,-0.02829887,-0.01941087,-0.02625931,-0.35324508,-
 0.01463853,-0.01980321,-0.04842120,0.00123935,0.00167660,-0.01019573,-
 0.00071811,-0.00097148,-0.00099316,-0.01713005,-0.02317377,0.69427693,
 0.01448864,0.01941233,-0.01783809,-0.00922000,-0.00738886,0.01768933,-
 0.07889859,-0.03415600,-0.01799704,-0.00031111,0.00030539,0.00047359,0
 .00174982,0.00105786,0.01788405,-0.01681035,-0.03187096,-0.01559243,0.
 34077637,0.01941233,0.02640032,-0.02413162,-0.00738886,-0.01375391,0.0
 2393038,-0.03415600,-0.09985721,-0.02434666,0.00030539,-0.00012372,0.0
 0064068,0.00105786,0.00239893,0.02419379,-0.03187096,-0.03636684,-0.02
 109367,0.28457344,0.51539481,-0.04990202,-0.06750817,-0.02751043,0.015
 62814,0.02114197,-0.04734658,0.02013130,0.02723391,-0.34580422,0.00072
 415,0.00097964,-0.00077850,-0.00085740,-0.00115990,-0.01039175,0.01470
 150,0.01988840,0.06222477,0.01623757,0.02196642,0.68938630,0.00570429,
 -0.00296779,-0.00067409,0.00295648,0.00025614,-0.00115075,-0.00017411,
 0.00045354,-0.00050415,-0.00246427,0.00240761,0.00016287,-0.00059336,0
 .00042066,0.00008675,-0.11964102,-0.11239609,0.07061248,0.00309006,-0.
 00466985,-0.00253918,0.11802782,-0.00296779,0.00388322,-0.00091192,0.0
 0025614,0.00311365,-0.00155675,0.00045354,0.00010418,-0.00068203,0.002
 40761,-0.00098693,0.00022033,0.00042066,-0.00033524,0.00011736,-0.1123
 9609,-0.18860892,0.09552558,-0.00466985,0.00022457,-0.00343505,0.12482
 772,0.19462394,-0.00117282,-0.00158661,-0.00470155,0.01733477,0.023450
 73,-0.01087188,-0.00040379,-0.00054625,-0.00086340,-0.00020347,-0.0002
 7526,0.00118554,0.00006498,0.00008790,0.00009855,0.07044272,0.09529593
 ,-0.12663100,-0.00187438,-0.00253568,-0.00110795,-0.07620429,-0.103090
 26,0.13083572,0.00545128,-0.00274808,0.00063820,-0.00031184,0.00050200
 ,0.00052731,0.00267401,0.00054117,0.00136407,-0.00059503,0.00043834,-0
 .00007958,-0.00225053,0.00229461,-0.00019871,0.00323211,-0.00483026,0.
 00255854,-0.11815887,-0.11175209,-0.07149447,-0.00024346,-0.00064953,-
 0.00051151,0.11689479,-0.00274808,0.00376502,0.00086337,0.00050200,-0.
 00000381,0.00071336,0.00054117,0.00300608,0.00184533,0.00043834,-0.000
 32606,-0.00010766,0.00229461,-0.00084252,-0.00026882,-0.00483026,0.000
 26819,0.00346123,-0.11175209,-0.18673159,-0.09671875,-0.00064953,-0.00
 064202,-0.00069198,0.12384271,0.19288650,0.00134489,0.00181938,-0.0048
 1195,0.00040108,0.00054259,-0.00076805,-0.01708765,-0.02311642,-0.0111
 0318,-0.00006630,-0.00008969,0.00011144,0.00014757,0.00019964,0.001124
 43,0.00183179,0.00247808,-0.00109163,-0.07142020,-0.09661827,-0.128908
 06,0.00049683,0.00067212,0.00050219,0.07711152,0.10431757,0.13304337,-
 0.02998975,-0.03405977,0.00033519,0.01637928,0.01313828,-0.04396362,0.
 01559624,0.01168621,0.04482829,0.00531700,-0.00259909,0.00113639,0.005
 13790,-0.00229182,-0.00113521,-0.13790061,-0.10639100,-0.03548645,-0.1
 3988741,-0.10925344,0.03619186,-0.00457208,-0.01003446,-0.00885955,-0.
 00457543,-0.00999420,0.00862366,0.31414777,-0.03405977,-0.05088932,0.0
 0045345,0.01313828,0.02444112,-0.05947462,0.01168621,0.02276707,0.0606
 4435,-0.00259909,0.00372216,0.00153733,-0.00229182,0.00373161,-0.00153
 572,-0.10639100,-0.20318369,-0.04800657,-0.10925344,-0.20692693,0.0489
 6087,-0.01003446,-0.01072937,-0.01198533,-0.00999420,-0.01070801,0.011
 66621,0.25920276,0.47319839,0.00045035,0.00060924,0.00382911,-0.015921
 01,-0.02153817,-0.02910311,0.01577466,0.02134019,-0.02863803,0.0005128
 5,0.00069378,-0.00518626,-0.00029561,-0.00039991,-0.00541508,-0.074356
 23,-0.10059018,-0.18169181,0.07507813,0.10156677,-0.18061432,0.0097270
 6,0.01315890,0.01202435,-0.00998313,-0.01350532,0.01214923,-0.00153150
 ,-0.00207184,0.74852509,-0.00087109,-0.00062431,0.00005883,0.00261885,
 -0.00530811,-0.00107079,0.00279064,-0.00537825,0.00100337,0.00040611,-
 0.00019454,-0.00084394,0.00041579,-0.00027454,0.00092274,0.00225890,0.
 00184318,-0.01704443,0.00211426,0.00163690,0.01723651,-0.00207170,0.00
 228413,0.00029723,-0.00217405,0.00236808,-0.00028814,-0.04135428,-0.01
 313583,0.00087937,0.03625508,-0.00062431,-0.00125418,0.00007958,-0.005
 30811,-0.00063829,-0.00144858,-0.00537825,-0.00050953,0.00135737,-0.00
 019454,0.00028674,-0.00114169,-0.00027454,0.00024733,0.00124829,0.0018
 4318,0.00338990,-0.02305795,0.00163690,0.00311868,0.02331780,0.0022841
 3,-0.00067013,0.00040210,0.00236808,-0.00072096,-0.00038981,-0.0131358
 3,-0.04941462,0.00118962,0.01617159,0.04617821,-0.00004368,-0.00005910
 ,0.00080842,-0.00182214,-0.00246501,0.00070552,0.00173959,0.00235335,0
 .00079588,0.00011819,0.00015989,-0.00064783,-0.00007659,-0.00010362,-0
 .00069371,0.00186377,0.00252133,-0.01167199,-0.00171544,-0.00232068,-0
 .01147918,-0.00013350,-0.00018060,0.00082159,0.00013312,0.00018009,0.0
 0083328,0.00095080,0.00128626,-0.34050368,-0.00103277,-0.00139715,0.36
 104436,-0.06471867,-0.03176086,0.00961977,0.00568153,-0.00107318,0.029
 95609,0.00632627,-0.00272744,-0.02599896,-0.00143615,0.00252519,-0.000
 52076,-0.00139736,0.00297793,-0.00044549,-0.00030698,-0.00680016,-0.00
 327239,0.00185653,-0.00769087,0.00379141,0.00011881,-0.00008431,0.0010
 3209,0.00008094,-0.00002445,-0.00099888,0.00157011,0.00370652,-0.00009
 687,-0.00030679,0.00058503,-0.00002751,0.21707933,-0.03176086,-0.08420
 760,0.01301376,-0.00107318,0.00502301,0.04052503,-0.00272744,0.0046526
 7,-0.03517177,0.00252519,0.00011334,-0.00070449,0.00297793,0.00042994,
 -0.00060267,-0.00680016,-0.00447966,-0.00442693,-0.00769087,-0.0028627
 0,0.00512907,-0.00008431,0.00006708,0.00139623,-0.00002445,0.00006594,
 -0.00135130,0.00370652,0.00384448,-0.00013105,0.00058503,0.00005220,-0
 .00003721,0.25785750,0.37530447,-0.02322704,-0.03142187,-0.30995446,0.
 00768894,0.01040171,-0.04132611,-0.00284200,-0.00384470,-0.04330996,-0
 .00035908,-0.00048577,0.00153418,0.00017768,0.00024037,0.00429887,0.00
 030086,0.00040701,0.00515396,-0.00119090,-0.00161107,0.00328602,0.0001
 8355,0.00024830,-0.00080583,-0.00011317,-0.00015310,-0.00137890,-0.000
 57218,-0.00077405,-0.00591572,-0.00002100,-0.00002840,-0.00011455,-0.0
 8468658,-0.11456522,0.48487127,-0.00255471,0.00042032,-0.00185952,0.00
 236849,0.00002424,-0.00042807,0.00081006,0.00234743,-0.00364517,-0.000
 26701,0.00050110,-0.00014867,0.00005118,-0.00059205,0.00059530,0.00098
 497,-0.00105318,0.00008269,-0.00078933,-0.00020383,0.00015064,-0.00013
 745,0.00015222,0.00005801,-0.00002393,0.00001170,-0.00009616,0.0001312
 6,0.00002584,-0.00023806,-0.00008173,0.00002667,0.00004616,-0.16454756
 ,-0.21749091,0.10466092,0.16405577,0.00042032,-0.00229680,-0.00251559,
 0.00002424,0.00238337,-0.00057910,0.00234743,0.00225047,-0.00493124,0.
 00050110,0.00004047,-0.00020113,-0.00059205,-0.00031211,0.00080533,-0.
 00105318,0.00033872,0.00011187,-0.00020383,-0.00091441,0.00020379,0.00
 015222,-0.00004404,0.00007848,0.00001170,-0.00001675,-0.00013009,0.000
 02584,0.00014712,-0.00032205,0.00002667,-0.00006536,0.00006245,-0.2174
 9091,-0.29800317,0.14158680,0.21583044,0.29649250,0.02869339,0.0388168
 3,-0.02459684,-0.00180475,-0.00244149,-0.00748824,0.00093339,0.0012627
 0,0.00364034,-0.00003540,-0.00004789,0.00012155,-0.00129739,-0.0017551
 3,-0.00041567,0.00140535,0.00190118,0.00058484,0.00026582,0.00035960,-
 0.00095609,-0.00006355,-0.00008598,-0.00048632,0.00004780,0.00006466,0
 .00029782,-0.00051768,-0.00070032,0.00054024,-0.00009697,-0.00013119,0
 .00010190,0.07164807,0.09692654,-0.09633879,-0.09917808,-0.13416953,0.
 12499525||-0.00017418,-0.00023564,0.00021328,-0.00000834,-0.00001128,-
 0.00053363,0.00014548,0.00019680,0.00008559,0.00002524,0.00003414,0.00
 008022,-0.00003167,-0.00004284,0.00001948,0.00014625,0.00019785,0.0003
 7598,0.00007539,0.00010198,-0.00018121,-0.00001079,-0.00001460,0.00000
 610,-0.00000591,-0.00000799,0.00004476,-0.00018842,-0.00025490,-0.0000
 2154,0.00001009,0.00001364,-0.00001081,0.00002516,0.00003404,-0.000018
 15,-0.00000829,-0.00001121,-0.00006007|||@


 I think that all right-thinking people in this
 country are sick and tired of being told that
 ordinary, decent people are fed up in this country
 with being sick and tired.  I'm certainly not!
 But I'm sick and tired of being told that I am!
                               -- Monty Python
 Job cpu time:  0 days  0 hours  4 minutes  3.0 seconds.
 File lengths (MBytes):  RWF=     31 Int=      0 D2E=      0 Chk=      5 Scr=      1
 Normal termination of Gaussian 03 at Sun Sep 17 17:03:32 2017.
