 Entering Link 1 = C:\G03W\l1.exe PID=      3248.
  
 Copyright (c) 1988,1990,1992,1993,1995,1998,2003,2004, Gaussian, Inc.
                  All Rights Reserved.
  
 This is the Gaussian(R) 03 program.  It is based on the
 the Gaussian(R) 98 system (copyright 1998, Gaussian, Inc.),
 the Gaussian(R) 94 system (copyright 1995, Gaussian, Inc.),
 the Gaussian 92(TM) system (copyright 1992, Gaussian, Inc.),
 the Gaussian 90(TM) system (copyright 1990, Gaussian, Inc.),
 the Gaussian 88(TM) system (copyright 1988, Gaussian, Inc.),
 the Gaussian 86(TM) system (copyright 1986, Carnegie Mellon
 University), and the Gaussian 82(TM) system (copyright 1983,
 Carnegie Mellon University). Gaussian is a federally registered
 trademark of Gaussian, Inc.
  
 This software contains proprietary and confidential information,
 including trade secrets, belonging to Gaussian, Inc.
  
 This software is provided under written license and may be
 used, copied, transmitted, or stored only in accord with that
 written license.
  
 The following legend is applicable only to US Government
 contracts under FAR:
  
                    RESTRICTED RIGHTS LEGEND
  
 Use, reproduction and disclosure by the US Government is
 subject to restrictions as set forth in subparagraphs (a)
 and (c) of the Commercial Computer Software - Restricted
 Rights clause in FAR 52.227-19.
  
 Gaussian, Inc.
 340 Quinnipiac St., Bldg. 40, Wallingford CT 06492
  
  
 ---------------------------------------------------------------
 Warning -- This program may not be used in any manner that
 competes with the business of Gaussian, Inc. or will provide
 assistance to any competitor of Gaussian, Inc.  The licensee
 of this program is prohibited from giving any competitor of
 Gaussian, Inc. access to this program.  By using this program,
 the user acknowledges that Gaussian, Inc. is engaged in the
 business of creating and licensing software in the field of
 computational chemistry and represents and warrants to the
 licensee that it is not a competitor of Gaussian, Inc. and that
 it will not use this program in any manner prohibited above.
 ---------------------------------------------------------------
  

 Cite this work as:
 Gaussian 03, Revision C.02,
 M. J. Frisch, G. W. Trucks, H. B. Schlegel, G. E. Scuseria, 
 M. A. Robb, J. R. Cheeseman, J. A. Montgomery, Jr., T. Vreven, 
 K. N. Kudin, J. C. Burant, J. M. Millam, S. S. Iyengar, J. Tomasi, 
 V. Barone, B. Mennucci, M. Cossi, G. Scalmani, N. Rega, 
 G. A. Petersson, H. Nakatsuji, M. Hada, M. Ehara, K. Toyota, 
 R. Fukuda, J. Hasegawa, M. Ishida, T. Nakajima, Y. Honda, O. Kitao, 
 H. Nakai, M. Klene, X. Li, J. E. Knox, H. P. Hratchian, J. B. Cross, 
 C. Adamo, J. Jaramillo, R. Gomperts, R. E. Stratmann, O. Yazyev, 
 A. J. Austin, R. Cammi, C. Pomelli, J. W. Ochterski, P. Y. Ayala, 
 K. Morokuma, G. A. Voth, P. Salvador, J. J. Dannenberg, 
 V. G. Zakrzewski, S. Dapprich, A. D. Daniels, M. C. Strain, 
 O. Farkas, D. K. Malick, A. D. Rabuck, K. Raghavachari, 
 J. B. Foresman, J. V. Ortiz, Q. Cui, A. G. Baboul, S. Clifford, 
 J. Cioslowski, B. B. Stefanov, G. Liu, A. Liashenko, P. Piskorz, 
 I. Komaromi, R. L. Martin, D. J. Fox, T. Keith, M. A. Al-Laham, 
 C. Y. Peng, A. Nanayakkara, M. Challacombe, P. M. W. Gill, 
 B. Johnson, W. Chen, M. W. Wong, C. Gonzalez, and J. A. Pople, 
 Gaussian, Inc., Wallingford CT, 2004.
 
 ******************************************
 Gaussian 03:  IA32W-G03RevC.02 12-Jun-2004
                02-Oct-2017 
 ******************************************
 %mem=300mb
 %chk=ch3oh.chk
 -----------------------------------
 # B3LYP 6-31G** SCF=direct OPT FREQ
 -----------------------------------
 1/14=-1,18=20,26=3,38=1/1,3;
 2/9=110,17=6,18=5,40=1/2;
 3/5=1,6=6,7=101,11=2,16=1,25=1,30=1,74=-5/1,2,3;
 4//1;
 5/5=2,38=5/2;
 6/7=2,8=2,9=2,10=2,28=1/1;
 7//1,2,3,16;
 1/14=-1,18=20/3(1);
 99//99;
 2/9=110/2;
 3/5=1,6=6,7=101,11=2,16=1,25=1,30=1,74=-5/1,2,3;
 4/5=5,16=3/1;
 5/5=2,38=5/2;
 7//1,2,3,16;
 1/14=-1,18=20/3(-5);
 2/9=110/2;
 6/7=2,8=2,9=2,10=2,19=2,28=1/1;
 99/9=1/99;
 -----
 ch3oh
 -----
 Symbolic Z-matrix:
 Charge =  0 Multiplicity = 1
 6                    -0.8596    2.68628   0. 
 1                    -1.89736   2.98538  -0.00015 
 1                    -0.37278   3.0757    0.88191 
 1                    -0.37252   3.07592  -0.88167 
 8                    -0.7745    1.2488   -0.00018 
 1                     0.14793   0.98285  -0.00026 
 6                     0.14555  -1.34946  -0.37117 
 1                     1.07362  -1.22463  -0.90923 
 1                     0.19923  -2.23978   0.23781 
 1                    -0.66873  -1.44313  -1.07443 
 8                    -0.07792  -0.2038    0.47211 
 1                    -0.90293  -0.31451   0.95033 
 

 GradGradGradGradGradGradGradGradGradGradGradGradGradGradGradGradGradGrad
 Berny optimization.
 Initialization pass.
                           ----------------------------
                           !    Initial Parameters    !
                           ! (Angstroms and Degrees)  !
 --------------------------                            --------------------------
 ! Name  Definition              Value          Derivative Info.                !
 --------------------------------------------------------------------------------
 ! R1    R(1,2)                  1.08           estimate D2E/DX2                !
 ! R2    R(1,3)                  1.08           estimate D2E/DX2                !
 ! R3    R(1,4)                  1.08           estimate D2E/DX2                !
 ! R4    R(1,5)                  1.44           estimate D2E/DX2                !
 ! R5    R(5,6)                  0.96           estimate D2E/DX2                !
 ! R6    R(5,11)                 1.6788         estimate D2E/DX2                !
 ! R7    R(5,12)                 1.8341         estimate D2E/DX2                !
 ! R8    R(6,11)                 1.297          estimate D2E/DX2                !
 ! R9    R(7,8)                  1.08           estimate D2E/DX2                !
 ! R10   R(7,9)                  1.08           estimate D2E/DX2                !
 ! R11   R(7,10)                 1.08           estimate D2E/DX2                !
 ! R12   R(7,11)                 1.44           estimate D2E/DX2                !
 ! R13   R(11,12)                0.96           estimate D2E/DX2                !
 ! A1    A(2,1,3)              109.4745         estimate D2E/DX2                !
 ! A2    A(2,1,4)              109.4712         estimate D2E/DX2                !
 ! A3    A(2,1,5)              109.4657         estimate D2E/DX2                !
 ! A4    A(3,1,4)              109.4657         estimate D2E/DX2                !
 ! A5    A(3,1,5)              109.4758         estimate D2E/DX2                !
 ! A6    A(4,1,5)              109.4745         estimate D2E/DX2                !
 ! A7    A(1,5,6)              109.4712         estimate D2E/DX2                !
 ! A8    A(1,5,11)             152.6527         estimate D2E/DX2                !
 ! A9    A(8,7,9)              109.4803         estimate D2E/DX2                !
 ! A10   A(8,7,10)             109.482          estimate D2E/DX2                !
 ! A11   A(8,7,11)             109.4601         estimate D2E/DX2                !
 ! A12   A(9,7,10)             109.4601         estimate D2E/DX2                !
 ! A13   A(9,7,11)             109.4735         estimate D2E/DX2                !
 ! A14   A(10,7,11)            109.4712         estimate D2E/DX2                !
 ! A15   A(5,11,7)             126.0184         estimate D2E/DX2                !
 ! A16   A(5,11,12)             83.3006         estimate D2E/DX2                !
 ! A17   A(6,11,7)             119.1825         estimate D2E/DX2                !
 ! A18   A(6,11,12)            115.8854         estimate D2E/DX2                !
 ! A19   A(7,11,12)            109.4712         estimate D2E/DX2                !
 ! D1    D(2,1,5,6)            179.9867         estimate D2E/DX2                !
 ! D2    D(2,1,5,11)          -142.2289         estimate D2E/DX2                !
 ! D3    D(3,1,5,6)            -60.0099         estimate D2E/DX2                !
 ! D4    D(3,1,5,11)           -22.2255         estimate D2E/DX2                !
 ! D5    D(4,1,5,6)             59.9881         estimate D2E/DX2                !
 ! D6    D(4,1,5,11)            97.7725         estimate D2E/DX2                !
 ! D7    D(1,5,11,7)          -139.1671         estimate D2E/DX2                !
 ! D8    D(1,5,11,12)          111.5912         estimate D2E/DX2                !
 ! D9    D(8,7,11,5)            84.0154         estimate D2E/DX2                !
 ! D10   D(8,7,11,6)            43.2839         estimate D2E/DX2                !
 ! D11   D(8,7,11,12)          179.9886         estimate D2E/DX2                !
 ! D12   D(9,7,11,5)          -155.9788         estimate D2E/DX2                !
 ! D13   D(9,7,11,6)           163.2897         estimate D2E/DX2                !
 ! D14   D(9,7,11,12)          -60.0057         estimate D2E/DX2                !
 ! D15   D(10,7,11,5)          -35.991          estimate D2E/DX2                !
 ! D16   D(10,7,11,6)          -76.7225         estimate D2E/DX2                !
 ! D17   D(10,7,11,12)          59.9821         estimate D2E/DX2                !
 --------------------------------------------------------------------------------
 Trust Radius=3.00D-01 FncErr=1.00D-07 GrdErr=1.00D-06
 Number of steps in this run=  59 maximum allowed number of steps= 100.
 GradGradGradGradGradGradGradGradGradGradGradGradGradGradGradGradGradGrad

                          Input orientation:                          
 ---------------------------------------------------------------------
 Center     Atomic     Atomic              Coordinates (Angstroms)
 Number     Number      Type              X           Y           Z
 ---------------------------------------------------------------------
    1          6             0       -0.859600    2.686282    0.000001
    2          1             0       -1.897358    2.985377   -0.000147
    3          1             0       -0.372777    3.075700    0.881906
    4          1             0       -0.372522    3.075921   -0.881666
    5          8             0       -0.774499    1.248799   -0.000185
    6          1             0        0.147927    0.982848   -0.000263
    7          6             0        0.145548   -1.349459   -0.371172
    8          1             0        1.073618   -1.224635   -0.909228
    9          1             0        0.199233   -2.239775    0.237807
   10          1             0       -0.668731   -1.443132   -1.074432
   11          8             0       -0.077916   -0.203797    0.472109
   12          1             0       -0.902930   -0.314507    0.950330
 ---------------------------------------------------------------------
                    Distance matrix (angstroms):
                    1          2          3          4          5
     1  C    0.000000
     2  H    1.080000   0.000000
     3  H    1.080000   1.763668   0.000000
     4  H    1.080000   1.763633   1.763572   0.000000
     5  O    1.440000   2.067974   2.068099   2.068083   0.000000
     6  H    1.979091   2.862397   2.330104   2.329955   0.960000
     7  C    4.175560   4.806447   4.628272   4.484751   2.781198
     8  H    4.456378   5.232335   4.877817   4.537274   3.218660
     9  H    5.044177   5.635116   5.384825   5.462303   3.629731
    10  H    4.271170   4.719672   4.933020   4.532850   2.900290
    11  O    3.030920   3.701922   3.318129   3.560344   1.678787
    12  H    3.147973   3.575126   3.432091   3.890056   1.834093
                    6          7          8          9         10
     6  H    0.000000
     7  C    2.361617   0.000000
     8  H    2.560488   1.080000   0.000000
     9  H    3.231812   1.080000   1.763732   0.000000
    10  H    2.775995   1.080000   1.763750   1.763512   0.000000
    11  O    1.297023   1.440000   2.067905   2.068071   2.068043
    12  H    1.921212   1.979091   2.862347   2.330046   2.329872
                   11         12
    11  O    0.000000
    12  H    0.960000   0.000000
 Stoichiometry    C2H8O2
 Framework group  C1[X(C2H8O2)]
 Deg. of freedom    30
 Full point group                 C1      NOp   1
 Largest Abelian subgroup         C1      NOp   1
 Largest concise Abelian subgroup C1      NOp   1
                         Standard orientation:                         
 ---------------------------------------------------------------------
 Center     Atomic     Atomic              Coordinates (Angstroms)
 Number     Number      Type              X           Y           Z
 ---------------------------------------------------------------------
    1          6             0        2.144119    0.122086   -0.049389
    2          1             0        2.694509   -0.013744    0.869862
    3          1             0        2.435461   -0.638009   -0.759161
    4          1             0        2.360904    1.098047   -0.457929
    5          8             0        0.732822    0.015435    0.216065
    6          1             0        0.243498    0.136368   -0.600965
    7          6             0       -2.026669    0.306355    0.027274
    8          1             0       -2.162370    0.990361   -0.797421
    9          1             0       -2.875211   -0.359119    0.086611
   10          1             0       -1.942071    0.864507    0.947985
   11          8             0       -0.826986   -0.462733   -0.179764
   12          1             0       -0.706111   -1.070676    0.553307
 ---------------------------------------------------------------------
 Rotational constants (GHZ):     34.9699888      3.0576233      2.9760318
 Standard basis: 6-31G(d,p) (6D, 7F)
 There are   100 symmetry adapted basis functions of A   symmetry.
 Integral buffers will be    262144 words long.
 Raffenetti 2 integral format.
 Two-electron integral symmetry is turned on.
   100 basis functions,   168 primitive gaussians,   100 cartesian basis functions
    18 alpha electrons       18 beta electrons
       nuclear repulsion energy       144.3972766260 Hartrees.
 NAtoms=   12 NActive=   12 NUniq=   12 SFac= 1.00D+00 NAtFMM=   60 Big=F
 One-electron integrals computed using PRISM.
 NBasis=   100 RedAO= T  NBF=   100
 NBsUse=   100 1.00D-06 NBFU=   100
 Harris functional with IExCor=  402 diagonalized for initial guess.
 ExpMin= 1.61D-01 ExpMax= 5.48D+03 ExpMxC= 8.25D+02 IAcc=1 IRadAn=         1 AccDes= 1.00D-06
 HarFok:  IExCor= 402 AccDes= 1.00D-06 IRadAn=         1 IDoV=1
 ScaDFX=  1.000000  1.000000  1.000000  1.000000
 Initial guess orbital symmetries:
       Occupied  (A) (A) (A) (A) (A) (A) (A) (A) (A) (A) (A) (A)
                 (A) (A) (A) (A) (A) (A)
       Virtual   (A) (A) (A) (A) (A) (A) (A) (A) (A) (A) (A) (A)
                 (A) (A) (A) (A) (A) (A) (A) (A) (A) (A) (A) (A)
                 (A) (A) (A) (A) (A) (A) (A) (A) (A) (A) (A) (A)
                 (A) (A) (A) (A) (A) (A) (A) (A) (A) (A) (A) (A)
                 (A) (A) (A) (A) (A) (A) (A) (A) (A) (A) (A) (A)
                 (A) (A) (A) (A) (A) (A) (A) (A) (A) (A) (A) (A)
                 (A) (A) (A) (A) (A) (A) (A) (A) (A) (A)
 The electronic state of the initial guess is 1-A.
 Requested convergence on RMS density matrix=1.00D-08 within 128 cycles.
 Requested convergence on MAX density matrix=1.00D-06.
 Requested convergence on             energy=1.00D-06.
 No special actions if energy rises.
 Keep R1 integrals in memory in canonical form, NReq=    13842994.
 Integral accuracy reduced to 1.0D-05 until final iterations.
 Initial convergence to 1.0D-05 achieved.  Increase integral accuracy.
 SCF Done:  E(RB+HF-LYP) =  -231.295383874     A.U. after   13 cycles
             Convg  =    0.4949D-08             -V/T =  2.0038
             S**2   =   0.0000

 **********************************************************************

            Population analysis using the SCF density.

 **********************************************************************

 Orbital symmetries:
       Occupied  (A) (A) (A) (A) (A) (A) (A) (A) (A) (A) (A) (A)
                 (A) (A) (A) (A) (A) (A)
       Virtual   (A) (A) (A) (A) (A) (A) (A) (A) (A) (A) (A) (A)
                 (A) (A) (A) (A) (A) (A) (A) (A) (A) (A) (A) (A)
                 (A) (A) (A) (A) (A) (A) (A) (A) (A) (A) (A) (A)
                 (A) (A) (A) (A) (A) (A) (A) (A) (A) (A) (A) (A)
                 (A) (A) (A) (A) (A) (A) (A) (A) (A) (A) (A) (A)
                 (A) (A) (A) (A) (A) (A) (A) (A) (A) (A) (A) (A)
                 (A) (A) (A) (A) (A) (A) (A) (A) (A) (A)
 The electronic state is 1-A.
 Alpha  occ. eigenvalues --  -19.13422 -19.07721 -10.22218 -10.17600  -1.07123
 Alpha  occ. eigenvalues --   -0.94328  -0.70291  -0.65118  -0.53970  -0.49628
 Alpha  occ. eigenvalues --   -0.44791  -0.42594  -0.40323  -0.39361  -0.34705
 Alpha  occ. eigenvalues --   -0.28309  -0.23493  -0.19597
 Alpha virt. eigenvalues --    0.06485   0.13126   0.13653   0.16402   0.17357
 Alpha virt. eigenvalues --    0.18459   0.19776   0.19977   0.21321   0.24128
 Alpha virt. eigenvalues --    0.51766   0.54893   0.55153   0.56218   0.58714
 Alpha virt. eigenvalues --    0.60825   0.77020   0.80616   0.83237   0.86175
 Alpha virt. eigenvalues --    0.87040   0.87637   0.88360   0.92138   0.95797
 Alpha virt. eigenvalues --    0.97084   1.02104   1.03245   1.10528   1.13777
 Alpha virt. eigenvalues --    1.17434   1.22915   1.33786   1.42189   1.47999
 Alpha virt. eigenvalues --    1.51202   1.60455   1.65952   1.68863   1.81465
 Alpha virt. eigenvalues --    1.84315   1.92242   1.94917   1.99537   2.01443
 Alpha virt. eigenvalues --    2.03315   2.06565   2.06877   2.07500   2.10904
 Alpha virt. eigenvalues --    2.11698   2.27106   2.35454   2.38675   2.48883
 Alpha virt. eigenvalues --    2.50323   2.53202   2.57029   2.62311   2.65332
 Alpha virt. eigenvalues --    2.71570   2.71933   2.78350   2.78999   2.85325
 Alpha virt. eigenvalues --    2.90231   2.92582   2.97486   3.16003   3.21014
 Alpha virt. eigenvalues --    3.27307   3.32751   3.40709   3.44591   3.45710
 Alpha virt. eigenvalues --    3.48056   3.57300   3.65443   3.92625   4.02434
 Alpha virt. eigenvalues --    4.43591   4.49533
          Condensed to atoms (all electrons):
              1          2          3          4          5          6
     1  C    4.805732   0.381562   0.379223   0.369901   0.153528  -0.024095
     2  H    0.381562   0.636150  -0.042944  -0.034048  -0.029404   0.005251
     3  H    0.379223  -0.042944   0.687907  -0.051364  -0.041523  -0.002482
     4  H    0.369901  -0.034048  -0.051364   0.683133  -0.030060  -0.009245
     5  O    0.153528  -0.029404  -0.041523  -0.030060   8.590143   0.289609
     6  H   -0.024095   0.005251  -0.002482  -0.009245   0.289609   0.412188
     7  C   -0.002213   0.000067  -0.000038   0.000158   0.027540  -0.003753
     8  H    0.000030   0.000004  -0.000003  -0.000033   0.000661   0.000622
     9  H    0.000091  -0.000002   0.000004  -0.000005  -0.001319  -0.000286
    10  H   -0.000508  -0.000005   0.000024   0.000029   0.006731   0.001380
    11  O    0.038835  -0.001332   0.000475  -0.000931  -0.450983  -0.008751
    12  H   -0.003477   0.000308  -0.000090   0.000169   0.028222  -0.009393
              7          8          9         10         11         12
     1  C   -0.002213   0.000030   0.000091  -0.000508   0.038835  -0.003477
     2  H    0.000067   0.000004  -0.000002  -0.000005  -0.001332   0.000308
     3  H   -0.000038  -0.000003   0.000004   0.000024   0.000475  -0.000090
     4  H    0.000158  -0.000033  -0.000005   0.000029  -0.000931   0.000169
     5  O    0.027540   0.000661  -0.001319   0.006731  -0.450983   0.028222
     6  H   -0.003753   0.000622  -0.000286   0.001380  -0.008751  -0.009393
     7  C    4.782640   0.394770   0.366040   0.382593   0.172219  -0.013796
     8  H    0.394770   0.585275  -0.032356  -0.038772  -0.031577   0.005015
     9  H    0.366040  -0.032356   0.649354  -0.048873  -0.024640  -0.008502
    10  H    0.382593  -0.038772  -0.048873   0.639134  -0.048039  -0.001462
    11  O    0.172219  -0.031577  -0.024640  -0.048039   8.560498   0.280806
    12  H   -0.013796   0.005015  -0.008502  -0.001462   0.280806   0.388724
 Mulliken atomic charges:
              1
     1  C   -0.098610
     2  H    0.084394
     3  H    0.070813
     4  H    0.072297
     5  O   -0.543144
     6  H    0.348956
     7  C   -0.106229
     8  H    0.116365
     9  H    0.100496
    10  H    0.107768
    11  O   -0.486581
    12  H    0.333476
 Sum of Mulliken charges=   0.00000
 Atomic charges with hydrogens summed into heavy atoms:
              1
     1  C    0.128893
     2  H    0.000000
     3  H    0.000000
     4  H    0.000000
     5  O   -0.194188
     6  H    0.000000
     7  C    0.218400
     8  H    0.000000
     9  H    0.000000
    10  H    0.000000
    11  O   -0.153105
    12  H    0.000000
 Sum of Mulliken charges=   0.00000
 Electronic spatial extent (au):  <R**2>=   446.4532
 Charge=     0.0000 electrons
 Dipole moment (field-independent basis, Debye):
    X=    -1.5552    Y=    -0.2053    Z=    -0.0843  Tot=     1.5709
 Quadrupole moment (field-independent basis, Debye-Ang):
   XX=   -24.4363   YY=   -25.0857   ZZ=   -25.3160
   XY=    -0.3916   XZ=    -1.2669   YZ=    -2.0565
 Traceless Quadrupole moment (field-independent basis, Debye-Ang):
   XX=     0.5097   YY=    -0.1397   ZZ=    -0.3700
   XY=    -0.3916   XZ=    -1.2669   YZ=    -2.0565
 Octapole moment (field-independent basis, Debye-Ang**2):
  XXX=    -6.8723  YYY=    -4.1268  ZZZ=     0.3967  XYY=    -2.4064
  XXY=    -0.1463  XXZ=     1.3660  XZZ=    -1.1021  YZZ=    -0.8685
  YYZ=     1.2394  XYZ=     1.5803
 Hexadecapole moment (field-independent basis, Debye-Ang**3):
 XXXX=  -493.1076 YYYY=   -50.3537 ZZZZ=   -40.8690 XXXY=     0.2305
 XXXZ=     4.8364 YYYX=     2.4675 YYYZ=    -2.9176 ZZZX=     1.3741
 ZZZY=    -1.4111 XXYY=   -90.1113 XXZZ=   -88.4459 YYZZ=   -14.4639
 XXYZ=    -1.9730 YYXZ=    -1.2448 ZZXY=    -0.6606
 N-N= 1.443972766260D+02 E-N=-8.322005301522D+02  KE= 2.304308108216D+02
 ***** Axes restored to original set *****
 -------------------------------------------------------------------
 Center     Atomic                   Forces (Hartrees/Bohr)
 Number     Number              X              Y              Z
 -------------------------------------------------------------------
    1          6          -0.006072954   -0.009473292   -0.007995266
    2          1          -0.009459577    0.005255993   -0.000036887
    3          1           0.004572930    0.009809559    0.010280169
    4          1           0.003601021    0.012042606   -0.009476641
    5          8          -0.093654954    0.231978969   -0.062985670
    6          1          -0.003859322    0.040077941   -0.010784679
    7          6          -0.005671483   -0.001034887    0.023947734
    8          1           0.007572819    0.004162663   -0.001974067
    9          1           0.003468735   -0.015739630   -0.000071589
   10          1          -0.008017856   -0.001208228   -0.009522235
   11          8           0.103355548   -0.275995148    0.071138697
   12          1           0.004165095    0.000123454   -0.002519566
 -------------------------------------------------------------------
 Cartesian Forces:  Max     0.275995148 RMS     0.067104815

 GradGradGradGradGradGradGradGradGradGradGradGradGradGradGradGradGradGrad
 Berny optimization.
 Internal  Forces:  Max     0.170566138 RMS     0.033048132
 Search for a local minimum.
 Step number   1 out of a maximum of  59
 All quantities printed in internal units (Hartrees-Bohrs-Radians)
 Second derivative matrix not updated -- first step.
     Eigenvalues ---    0.00642   0.01163   0.01163   0.03519   0.05924
     Eigenvalues ---    0.06324   0.06324   0.07756   0.07757   0.09964
     Eigenvalues ---    0.13346   0.16000   0.16000   0.16000   0.16000
     Eigenvalues ---    0.16000   0.16000   0.18040   0.19741   0.23225
     Eigenvalues ---    0.35994   0.35994   0.35994   0.35994   0.35994
     Eigenvalues ---    0.35994   0.39585   0.39585   0.43931   0.52807
     Eigenvalues --- 1000.000001000.000001000.000001000.000001000.00000
     Eigenvalues --- 1000.000001000.000001000.000001000.000001000.00000
     Eigenvalues --- 1000.000001000.000001000.000001000.000001000.00000
     Eigenvalues --- 1000.000001000.000001000.000001000.00000
 RFO step:  Lambda=-1.61271375D-01.
 Linear search not attempted -- first point.
 Maximum step size (   0.300) exceeded in Quadratic search.
    -- Step size scaled by   0.421
 Iteration  1 RMS(Cart)=  0.06147723 RMS(Int)=  0.00227003
 Iteration  2 RMS(Cart)=  0.00384650 RMS(Int)=  0.00021607
 Iteration  3 RMS(Cart)=  0.00000633 RMS(Int)=  0.00021598
 Iteration  4 RMS(Cart)=  0.00000000 RMS(Int)=  0.00021598
 Variable       Old X    -DE/DX   Delta X   Delta X   Delta X     New X
                                 (Linear)    (Quad)   (Total)
    R1        2.04090   0.01054   0.00000   0.00852   0.00852   2.04942
    R2        2.04090   0.01399   0.00000   0.01131   0.01131   2.05221
    R3        2.04090   0.01370   0.00000   0.01108   0.01108   2.05198
    R4        2.72121   0.01804   0.00000   0.01364   0.01364   2.73484
    R5        1.81414   0.03678   0.00000   0.01895   0.01920   1.83334
    R6        3.17245   0.17057   0.00000   0.21949   0.21867   3.39111
    R7        3.46593   0.07810   0.00000   0.12686   0.12742   3.59336
    R8        2.45102   0.06494   0.00000   0.07881   0.07907   2.53009
    R9        2.04090   0.00797   0.00000   0.00644   0.00644   2.04735
   R10        2.04090   0.01311   0.00000   0.01059   0.01059   2.05150
   R11        2.04090   0.01235   0.00000   0.00998   0.00998   2.05089
   R12        2.72121   0.00334   0.00000   0.00252   0.00252   2.72373
   R13        1.81414  -0.03739   0.00000  -0.01900  -0.01920   1.79494
    A1        1.91069  -0.00424   0.00000  -0.00609  -0.00609   1.90460
    A2        1.91063  -0.00553   0.00000  -0.00742  -0.00743   1.90320
    A3        1.91054   0.00008   0.00000  -0.00025  -0.00025   1.91028
    A4        1.91054  -0.00581   0.00000  -0.00691  -0.00698   1.90356
    A5        1.91071   0.00549   0.00000   0.00728   0.00725   1.91796
    A6        1.91069   0.01000   0.00000   0.01338   0.01334   1.92403
    A7        1.91063   0.04094   0.00000   0.05511   0.05560   1.96623
    A8        2.66429  -0.00126   0.00000  -0.00202  -0.00244   2.66185
    A9        1.91079  -0.00328   0.00000  -0.00444  -0.00437   1.90642
   A10        1.91082   0.00117   0.00000   0.00023   0.00021   1.91103
   A11        1.91044  -0.00893   0.00000  -0.01242  -0.01240   1.89804
   A12        1.91044  -0.00468   0.00000  -0.00470  -0.00477   1.90567
   A13        1.91067   0.01493   0.00000   0.02022   0.02022   1.93089
   A14        1.91063   0.00079   0.00000   0.00111   0.00106   1.91169
   A15        2.19944   0.03931   0.00000   0.03584   0.03566   2.23509
   A16        1.45387  -0.03155   0.00000  -0.03197  -0.03225   1.42162
   A17        2.08013   0.02795   0.00000   0.03024   0.03058   2.11070
   A18        2.02258  -0.05220   0.00000  -0.06898  -0.06933   1.95325
   A19        1.91063   0.01818   0.00000   0.01565   0.01608   1.92671
    D1        3.14136   0.00185   0.00000   0.00480   0.00476  -3.13706
    D2       -2.48236  -0.00087   0.00000  -0.00295  -0.00291  -2.48527
    D3       -1.04737   0.00006   0.00000   0.00165   0.00159  -1.04578
    D4       -0.38791  -0.00266   0.00000  -0.00610  -0.00609  -0.39400
    D5        1.04699   0.00244   0.00000   0.00584   0.00583   1.05282
    D6        1.70645  -0.00028   0.00000  -0.00190  -0.00184   1.70461
    D7       -2.42892   0.00578   0.00000   0.00897   0.00884  -2.42008
    D8        1.94763   0.00110   0.00000   0.00819   0.00853   1.95616
    D9        1.46635  -0.00424   0.00000  -0.01145  -0.01141   1.45494
   D10        0.75545   0.01596   0.00000   0.03197   0.03201   0.78746
   D11        3.14139  -0.01463   0.00000  -0.02583  -0.02583   3.11556
   D12       -2.72234  -0.00460   0.00000  -0.01211  -0.01213  -2.73447
   D13        2.84994   0.01561   0.00000   0.03131   0.03128   2.88123
   D14       -1.04730  -0.01498   0.00000  -0.02649  -0.02656  -1.07385
   D15       -0.62816  -0.00070   0.00000  -0.00480  -0.00477  -0.63293
   D16       -1.33906   0.01951   0.00000   0.03862   0.03864  -1.30042
   D17        1.04689  -0.01109   0.00000  -0.01918  -0.01920   1.02769
         Item               Value     Threshold  Converged?
 Maximum Force            0.170566     0.000450     NO 
 RMS     Force            0.033048     0.000300     NO 
 Maximum Displacement     0.172953     0.001800     NO 
 RMS     Displacement     0.064966     0.001200     NO 
 Predicted change in Energy=-6.088610D-02
 GradGradGradGradGradGradGradGradGradGradGradGradGradGradGradGradGradGrad

                          Input orientation:                          
 ---------------------------------------------------------------------
 Center     Atomic     Atomic              Coordinates (Angstroms)
 Number     Number      Type              X           Y           Z
 ---------------------------------------------------------------------
    1          6             0       -0.870204    2.755292    0.007083
    2          1             0       -1.908516    3.068155    0.020680
    3          1             0       -0.372566    3.134872    0.894572
    4          1             0       -0.387450    3.167443   -0.873924
    5          8             0       -0.802672    1.309822   -0.015076
    6          1             0        0.109077    0.978386   -0.023803
    7          6             0        0.162900   -1.416546   -0.363535
    8          1             0        1.094430   -1.282010   -0.900123
    9          1             0        0.227611   -2.312479    0.246100
   10          1             0       -0.651148   -1.525850   -1.072911
   11          8             0       -0.068607   -0.257027    0.460702
   12          1             0       -0.892860   -0.340438    0.925296
 ---------------------------------------------------------------------
                    Distance matrix (angstroms):
                    1          2          3          4          5
     1  C    0.000000
     2  H    1.084509   0.000000
     3  H    1.085985   1.768412   0.000000
     4  H    1.085861   1.767432   1.768859   0.000000
     5  O    1.447217   2.077476   2.084049   2.088250   0.000000
     6  H    2.029123   2.905132   2.392869   2.400253   0.970160
     7  C    4.313803   4.954890   4.752364   4.645034   2.913217
     8  H    4.580679   5.365585   4.988172   4.689807   3.331651
     9  H    5.190822   5.793538   5.518548   5.626927   3.775018
    10  H    4.420696   4.886901   5.066649   4.704905   3.030348
    11  O    3.149984   3.825666   3.433019   3.689158   1.794500
    12  H    3.229113   3.669931   3.514176   3.974652   1.901523
                    6          7          8          9         10
     6  H    0.000000
     7  C    2.419508   0.000000
     8  H    2.616916   1.083409   0.000000
     9  H    3.304042   1.085605   1.768353   0.000000
    10  H    2.819534   1.085282   1.770976   1.769405   0.000000
    11  O    1.338866   1.441335   2.062787   2.087746   2.073942
    12  H    1.908916   1.983361   2.857977   2.367638   2.335906
                   11         12
    11  O    0.000000
    12  H    0.949840   0.000000
 Stoichiometry    C2H8O2
 Framework group  C1[X(C2H8O2)]
 Deg. of freedom    30
 Full point group                 C1      NOp   1
 Largest Abelian subgroup         C1      NOp   1
 Largest concise Abelian subgroup C1      NOp   1
                         Standard orientation:                         
 ---------------------------------------------------------------------
 Center     Atomic     Atomic              Coordinates (Angstroms)
 Number     Number      Type              X           Y           Z
 ---------------------------------------------------------------------
    1          6             0        2.211801    0.111299   -0.059736
    2          1             0        2.775984   -0.041494    0.853780
    3          1             0        2.489183   -0.651658   -0.781068
    4          1             0        2.453794    1.088625   -0.466387
    5          8             0        0.796100    0.025353    0.228083
    6          1             0        0.245976    0.151712   -0.560972
    7          6             0       -2.097134    0.298214    0.024170
    8          1             0       -2.222698    0.985262   -0.804066
    9          1             0       -2.955466   -0.364742    0.072069
   10          1             0       -2.026471    0.857784    0.951383
   11          8             0       -0.884695   -0.454491   -0.178005
   12          1             0       -0.739541   -1.049460    0.548038
 ---------------------------------------------------------------------
 Rotational constants (GHZ):     35.4656431      2.8425915      2.7767379
 Standard basis: 6-31G(d,p) (6D, 7F)
 There are   100 symmetry adapted basis functions of A   symmetry.
 Integral buffers will be    262144 words long.
 Raffenetti 2 integral format.
 Two-electron integral symmetry is turned on.
   100 basis functions,   168 primitive gaussians,   100 cartesian basis functions
    18 alpha electrons       18 beta electrons
       nuclear repulsion energy       141.2147419598 Hartrees.
 NAtoms=   12 NActive=   12 NUniq=   12 SFac= 1.00D+00 NAtFMM=   60 Big=F
 One-electron integrals computed using PRISM.
 NBasis=   100 RedAO= T  NBF=   100
 NBsUse=   100 1.00D-06 NBFU=   100
 Initial guess read from the read-write file:
 Initial guess orbital symmetries:
       Occupied  (A) (A) (A) (A) (A) (A) (A) (A) (A) (A) (A) (A)
                 (A) (A) (A) (A) (A) (A)
       Virtual   (A) (A) (A) (A) (A) (A) (A) (A) (A) (A) (A) (A)
                 (A) (A) (A) (A) (A) (A) (A) (A) (A) (A) (A) (A)
                 (A) (A) (A) (A) (A) (A) (A) (A) (A) (A) (A) (A)
                 (A) (A) (A) (A) (A) (A) (A) (A) (A) (A) (A) (A)
                 (A) (A) (A) (A) (A) (A) (A) (A) (A) (A) (A) (A)
                 (A) (A) (A) (A) (A) (A) (A) (A) (A) (A) (A) (A)
                 (A) (A) (A) (A) (A) (A) (A) (A) (A) (A)
 Harris functional with IExCor=  402 diagonalized for initial guess.
 ExpMin= 1.61D-01 ExpMax= 5.48D+03 ExpMxC= 8.25D+02 IAcc=1 IRadAn=         1 AccDes= 1.00D-06
 HarFok:  IExCor= 402 AccDes= 1.00D-06 IRadAn=         1 IDoV=1
 ScaDFX=  1.000000  1.000000  1.000000  1.000000
 Requested convergence on RMS density matrix=1.00D-08 within 128 cycles.
 Requested convergence on MAX density matrix=1.00D-06.
 Requested convergence on             energy=1.00D-06.
 No special actions if energy rises.
 Keep R1 integrals in memory in canonical form, NReq=    13843140.
 Integral accuracy reduced to 1.0D-05 until final iterations.
 Initial convergence to 1.0D-05 achieved.  Increase integral accuracy.
 SCF Done:  E(RB+HF-LYP) =  -231.351427515     A.U. after   11 cycles
             Convg  =    0.7961D-08             -V/T =  2.0054
             S**2   =   0.0000
 ***** Axes restored to original set *****
 -------------------------------------------------------------------
 Center     Atomic                   Forces (Hartrees/Bohr)
 Number     Number              X              Y              Z
 -------------------------------------------------------------------
    1          6           0.001013573   -0.019883369   -0.005239627
    2          1          -0.006438258    0.002120414    0.000065217
    3          1           0.002987054    0.007444382    0.007012028
    4          1           0.002272966    0.008515021   -0.006355438
    5          8          -0.065231848    0.167417370   -0.039762642
    6          1          -0.009323784    0.031620339   -0.006280867
    7          6          -0.007962454    0.003066672    0.019030961
    8          1           0.005090316    0.003221826   -0.001270125
    9          1           0.002661969   -0.009957412    0.000621957
   10          1          -0.004607521   -0.001601044   -0.007181045
   11          8           0.088260095   -0.193506528    0.038038663
   12          1          -0.008722108    0.001542330    0.001320918
 -------------------------------------------------------------------
 Cartesian Forces:  Max     0.193506528 RMS     0.048047734

 GradGradGradGradGradGradGradGradGradGradGradGradGradGradGradGradGradGrad
 Berny optimization.
 Internal  Forces:  Max     0.112214528 RMS     0.022014725
 Search for a local minimum.
 Step number   2 out of a maximum of  59
 All quantities printed in internal units (Hartrees-Bohrs-Radians)
 Update second derivatives using D2CorX and points  1  2
 Trust test= 9.20D-01 RLast= 3.00D-01 DXMaxT set to 4.24D-01
 Maximum step size (   0.424) exceeded in linear search.
    -- Step size scaled by   0.707
 Quartic linear search produced a step of  1.41427.
 Iteration  1 RMS(Cart)=  0.07396063 RMS(Int)=  0.01187406
 Iteration  2 RMS(Cart)=  0.01913566 RMS(Int)=  0.00078451
 Iteration  3 RMS(Cart)=  0.00010828 RMS(Int)=  0.00077500
 Iteration  4 RMS(Cart)=  0.00000036 RMS(Int)=  0.00077500
 Variable       Old X    -DE/DX   Delta X   Delta X   Delta X     New X
                                 (Linear)    (Quad)   (Total)
    R1        2.04942   0.00678   0.01205   0.00000   0.01205   2.06148
    R2        2.05221   0.00970   0.01599   0.00000   0.01599   2.06821
    R3        2.05198   0.00940   0.01566   0.00000   0.01566   2.06764
    R4        2.73484  -0.00186   0.01929   0.00000   0.01929   2.75413
    R5        1.83334   0.02157   0.02715   0.00000   0.02848   1.86181
    R6        3.39111   0.11221   0.30925   0.00000   0.30608   3.69720
    R7        3.59336   0.05373   0.18021   0.00000   0.18203   3.77539
    R8        2.53009   0.04696   0.11183   0.00000   0.11307   2.64316
    R9        2.04735   0.00541   0.00911   0.00000   0.00911   2.05646
   R10        2.05150   0.00873   0.01498   0.00000   0.01498   2.06648
   R11        2.05089   0.00831   0.01412   0.00000   0.01412   2.06500
   R12        2.72373  -0.00294   0.00357   0.00000   0.00357   2.72730
   R13        1.79494  -0.01122  -0.02715   0.00000  -0.02766   1.76728
    A1        1.90460  -0.00261  -0.00861   0.00000  -0.00861   1.89599
    A2        1.90320  -0.00319  -0.01051   0.00000  -0.01054   1.89267
    A3        1.91028  -0.00259  -0.00036   0.00000  -0.00037   1.90991
    A4        1.90356  -0.00437  -0.00987   0.00000  -0.01009   1.89347
    A5        1.91796   0.00540   0.01025   0.00000   0.01013   1.92809
    A6        1.92403   0.00721   0.01887   0.00000   0.01873   1.94277
    A7        1.96623   0.02369   0.07863   0.00000   0.08036   2.04659
    A8        2.66185  -0.00248  -0.00345   0.00000  -0.00483   2.65702
    A9        1.90642  -0.00156  -0.00618   0.00000  -0.00595   1.90047
   A10        1.91103   0.00022   0.00029   0.00000   0.00021   1.91124
   A11        1.89804  -0.00672  -0.01754   0.00000  -0.01746   1.88058
   A12        1.90567  -0.00315  -0.00675   0.00000  -0.00700   1.89867
   A13        1.93089   0.00860   0.02859   0.00000   0.02857   1.95946
   A14        1.91169   0.00256   0.00149   0.00000   0.00132   1.91301
   A15        2.23509   0.02690   0.05043   0.00000   0.04998   2.28507
   A16        1.42162  -0.02376  -0.04560   0.00000  -0.04636   1.37526
   A17        2.11070   0.02153   0.04324   0.00000   0.04444   2.15515
   A18        1.95325  -0.03871  -0.09805   0.00000  -0.09924   1.85401
   A19        1.92671   0.01376   0.02274   0.00000   0.02415   1.95086
    D1       -3.13706   0.00160   0.00674   0.00000   0.00676  -3.13030
    D2       -2.48527  -0.00118  -0.00411   0.00000  -0.00411  -2.48938
    D3       -1.04578   0.00010   0.00224   0.00000   0.00216  -1.04362
    D4       -0.39400  -0.00267  -0.00861   0.00000  -0.00871  -0.40270
    D5        1.05282   0.00269   0.00825   0.00000   0.00834   1.06116
    D6        1.70461  -0.00008  -0.00260   0.00000  -0.00253   1.70208
    D7       -2.42008   0.00337   0.01251   0.00000   0.01197  -2.40812
    D8        1.95616   0.00120   0.01206   0.00000   0.01307   1.96923
    D9        1.45494  -0.00190  -0.01613   0.00000  -0.01623   1.43871
   D10        0.78746   0.01142   0.04527   0.00000   0.04563   0.83309
   D11        3.11556  -0.01065  -0.03653   0.00000  -0.03655   3.07901
   D12       -2.73447  -0.00282  -0.01716   0.00000  -0.01746  -2.75194
   D13        2.88123   0.01050   0.04424   0.00000   0.04439   2.92562
   D14       -1.07385  -0.01156  -0.03756   0.00000  -0.03779  -1.11164
   D15       -0.63293   0.00037  -0.00675   0.00000  -0.00688  -0.63981
   D16       -1.30042   0.01368   0.05465   0.00000   0.05498  -1.24544
   D17        1.02769  -0.00838  -0.02715   0.00000  -0.02721   1.00048
         Item               Value     Threshold  Converged?
 Maximum Force            0.112215     0.000450     NO 
 RMS     Force            0.022015     0.000300     NO 
 Maximum Displacement     0.242034     0.001800     NO 
 RMS     Displacement     0.091677     0.001200     NO 
 Predicted change in Energy=-4.165032D-02
 GradGradGradGradGradGradGradGradGradGradGradGradGradGradGradGradGradGrad

                          Input orientation:                          
 ---------------------------------------------------------------------
 Center     Atomic     Atomic              Coordinates (Angstroms)
 Number     Number      Type              X           Y           Z
 ---------------------------------------------------------------------
    1          6             0       -0.884152    2.852054    0.017375
    2          1             0       -1.922857    3.183815    0.049917
    3          1             0       -0.371931    3.218198    0.912576
    4          1             0       -0.406529    3.295522   -0.861474
    5          8             0       -0.841617    1.396182   -0.034675
    6          1             0        0.046947    0.971202   -0.057582
    7          6             0        0.187563   -1.510672   -0.352504
    8          1             0        1.123243   -1.362406   -0.888009
    9          1             0        0.269115   -2.413218    0.259518
   10          1             0       -0.626079   -1.644125   -1.069639
   11          8             0       -0.056123   -0.331005    0.442414
   12          1             0       -0.877588   -0.375925    0.887143
 ---------------------------------------------------------------------
                    Distance matrix (angstroms):
                    1          2          3          4          5
     1  C    0.000000
     2  H    1.090886   0.000000
     3  H    1.094448   1.775031   0.000000
     4  H    1.094149   1.772671   1.776071   0.000000
     5  O    1.457423   2.090901   2.106568   2.116694   0.000000
     6  H    2.100040   2.964344   2.483073   2.500869   0.985230
     7  C    4.507633   5.162753   4.927034   4.869445   3.100004
     8  H    4.755105   5.552166   5.143887   4.902774   3.492658
     9  H    5.395531   6.014603   5.705285   5.856862   3.978920
    10  H    4.632907   5.122894   5.256990   4.948903   3.218862
    11  O    3.316346   3.999088   3.594110   3.869703   1.956473
    12  H    3.343111   3.803326   3.629608   4.093786   1.997850
                    6          7          8          9         10
     6  H    0.000000
     7  C    2.503288   0.000000
     8  H    2.700694   1.088230   0.000000
     9  H    3.406496   1.093532   1.774981   0.000000
    10  H    2.883948   1.092752   1.781147   1.777509   0.000000
    11  O    1.398700   1.443223   2.055411   2.115383   2.082172
    12  H    1.887332   1.989703   2.850900   2.420621   2.345332
                   11         12
    11  O    0.000000
    12  H    0.935204   0.000000
 Stoichiometry    C2H8O2
 Framework group  C1[X(C2H8O2)]
 Deg. of freedom    30
 Full point group                 C1      NOp   1
 Largest Abelian subgroup         C1      NOp   1
 Largest concise Abelian subgroup C1      NOp   1
                         Standard orientation:                         
 ---------------------------------------------------------------------
 Center     Atomic     Atomic              Coordinates (Angstroms)
 Number     Number      Type              X           Y           Z
 ---------------------------------------------------------------------
    1          6             0        2.306143    0.096820   -0.074711
    2          1             0        2.888958   -0.077970    0.830721
    3          1             0        2.565075   -0.670596   -0.810811
    4          1             0        2.582501    1.074476   -0.480888
    5          8             0        0.885301    0.038230    0.244440
    6          1             0        0.250360    0.171589   -0.497007
    7          6             0       -2.196566    0.285574    0.018751
    8          1             0       -2.307932    0.976634   -0.814484
    9          1             0       -3.067259   -0.375312    0.049359
   10          1             0       -2.148141    0.847389    0.954767
   11          8             0       -0.964747   -0.441281   -0.174104
   12          1             0       -0.785464   -1.016167    0.541418
 ---------------------------------------------------------------------
 Rotational constants (GHZ):     36.2363255      2.5756463      2.5273307
 Standard basis: 6-31G(d,p) (6D, 7F)
 There are   100 symmetry adapted basis functions of A   symmetry.
 Integral buffers will be    262144 words long.
 Raffenetti 2 integral format.
 Two-electron integral symmetry is turned on.
   100 basis functions,   168 primitive gaussians,   100 cartesian basis functions
    18 alpha electrons       18 beta electrons
       nuclear repulsion energy       137.1940581201 Hartrees.
 NAtoms=   12 NActive=   12 NUniq=   12 SFac= 1.00D+00 NAtFMM=   60 Big=F
 One-electron integrals computed using PRISM.
 NBasis=   100 RedAO= T  NBF=   100
 NBsUse=   100 1.00D-06 NBFU=   100
 Initial guess read from the read-write file:
 Initial guess orbital symmetries:
       Occupied  (A) (A) (A) (A) (A) (A) (A) (A) (A) (A) (A) (A)
                 (A) (A) (A) (A) (A) (A)
       Virtual   (A) (A) (A) (A) (A) (A) (A) (A) (A) (A) (A) (A)
                 (A) (A) (A) (A) (A) (A) (A) (A) (A) (A) (A) (A)
                 (A) (A) (A) (A) (A) (A) (A) (A) (A) (A) (A) (A)
                 (A) (A) (A) (A) (A) (A) (A) (A) (A) (A) (A) (A)
                 (A) (A) (A) (A) (A) (A) (A) (A) (A) (A) (A) (A)
                 (A) (A) (A) (A) (A) (A) (A) (A) (A) (A) (A) (A)
                 (A) (A) (A) (A) (A) (A) (A) (A) (A) (A)
 Harris functional with IExCor=  402 diagonalized for initial guess.
 ExpMin= 1.61D-01 ExpMax= 5.48D+03 ExpMxC= 8.25D+02 IAcc=1 IRadAn=         1 AccDes= 1.00D-06
 HarFok:  IExCor= 402 AccDes= 1.00D-06 IRadAn=         1 IDoV=1
 ScaDFX=  1.000000  1.000000  1.000000  1.000000
 Requested convergence on RMS density matrix=1.00D-08 within 128 cycles.
 Requested convergence on MAX density matrix=1.00D-06.
 Requested convergence on             energy=1.00D-06.
 No special actions if energy rises.
 Keep R1 integrals in memory in canonical form, NReq=    13843436.
 Integral accuracy reduced to 1.0D-05 until final iterations.
 Initial convergence to 1.0D-05 achieved.  Increase integral accuracy.
 SCF Done:  E(RB+HF-LYP) =  -231.399141952     A.U. after   11 cycles
             Convg  =    0.3756D-08             -V/T =  2.0072
             S**2   =   0.0000
 ***** Axes restored to original set *****
 -------------------------------------------------------------------
 Center     Atomic                   Forces (Hartrees/Bohr)
 Number     Number              X              Y              Z
 -------------------------------------------------------------------
    1          6           0.008780488   -0.027314192   -0.002900850
    2          1          -0.002537611   -0.001916815    0.000002989
    3          1           0.000786619    0.004074783    0.002623756
    4          1           0.000543600    0.003641452   -0.002390393
    5          8          -0.038579891    0.104669859   -0.020172774
    6          1          -0.014301938    0.027854705   -0.002044247
    7          6          -0.009700215    0.005659220    0.012098627
    8          1           0.001724361    0.001864363   -0.000265939
    9          1           0.001426386   -0.002459017    0.001232390
   10          1          -0.000346401   -0.001529523   -0.003840242
   11          8           0.079771808   -0.115794451    0.006681844
   12          1          -0.027567206    0.001249615    0.008974840
 -------------------------------------------------------------------
 Cartesian Forces:  Max     0.115794451 RMS     0.031484225

 GradGradGradGradGradGradGradGradGradGradGradGradGradGradGradGradGradGrad
 Berny optimization.
 Internal  Forces:  Max     0.057407712 RMS     0.012871293
 Search for a local minimum.
 Step number   3 out of a maximum of  59
 All quantities printed in internal units (Hartrees-Bohrs-Radians)
 Update second derivatives using D2CorX and points  2  3
 Maximum step size (   0.424) exceeded in linear search.
    -- Step size scaled by   0.500
 Quartic linear search produced a step of  1.00018.
 Iteration  1 RMS(Cart)=  0.07489753 RMS(Int)=  0.01134205
 Iteration  2 RMS(Cart)=  0.01755817 RMS(Int)=  0.00104519
 Iteration  3 RMS(Cart)=  0.00008491 RMS(Int)=  0.00104078
 Iteration  4 RMS(Cart)=  0.00000032 RMS(Int)=  0.00104078
 Variable       Old X    -DE/DX   Delta X   Delta X   Delta X     New X
                                 (Linear)    (Quad)   (Total)
    R1        2.06148   0.00183   0.01205   0.00000   0.01205   2.07353
    R2        2.06821   0.00388   0.01600   0.00000   0.01600   2.08420
    R3        2.06764   0.00363   0.01567   0.00000   0.01567   2.08331
    R4        2.75413  -0.02181   0.01929   0.00000   0.01929   2.77342
    R5        1.86181   0.00453   0.02848   0.00000   0.03095   1.89277
    R6        3.69720   0.05741   0.30614   0.00000   0.30174   3.99893
    R7        3.77539   0.03132   0.18207   0.00000   0.18395   3.95934
    R8        2.64316   0.03109   0.11309   0.00000   0.11532   2.75848
    R9        2.05646   0.00187   0.00911   0.00000   0.00911   2.06557
   R10        2.06648   0.00283   0.01498   0.00000   0.01498   2.08146
   R11        2.06500   0.00296   0.01412   0.00000   0.01412   2.07912
   R12        2.72730  -0.00913   0.00357   0.00000   0.00357   2.73086
   R13        1.76728   0.01972  -0.02766   0.00000  -0.02803   1.73925
    A1        1.89599  -0.00040  -0.00862   0.00000  -0.00861   1.88737
    A2        1.89267  -0.00014  -0.01054   0.00000  -0.01056   1.88210
    A3        1.90991  -0.00564  -0.00037   0.00000  -0.00039   1.90952
    A4        1.89347  -0.00230  -0.01010   0.00000  -0.01035   1.88311
    A5        1.92809   0.00472   0.01013   0.00000   0.00999   1.93808
    A6        1.94277   0.00364   0.01874   0.00000   0.01859   1.96135
    A7        2.04659   0.00599   0.08037   0.00000   0.08254   2.12913
    A8        2.65702  -0.00566  -0.00483   0.00000  -0.00631   2.65072
    A9        1.90047   0.00045  -0.00595   0.00000  -0.00568   1.89479
   A10        1.91124  -0.00078   0.00021   0.00000   0.00011   1.91135
   A11        1.88058  -0.00372  -0.01746   0.00000  -0.01736   1.86322
   A12        1.89867  -0.00099  -0.00700   0.00000  -0.00730   1.89137
   A13        1.95946   0.00082   0.02858   0.00000   0.02855   1.98801
   A14        1.91301   0.00416   0.00132   0.00000   0.00110   1.91411
   A15        2.28507   0.01533   0.04999   0.00000   0.04979   2.33486
   A16        1.37526  -0.01482  -0.04637   0.00000  -0.04695   1.32831
   A17        2.15515   0.01496   0.04445   0.00000   0.04595   2.20110
   A18        1.85401  -0.02455  -0.09926   0.00000  -0.10059   1.75342
   A19        1.95086   0.00795   0.02415   0.00000   0.02566   1.97652
    D1       -3.13030   0.00159   0.00676   0.00000   0.00702  -3.12329
    D2       -2.48938  -0.00177  -0.00411   0.00000  -0.00435  -2.49373
    D3       -1.04362   0.00046   0.00216   0.00000   0.00231  -1.04131
    D4       -0.40270  -0.00290  -0.00871   0.00000  -0.00906  -0.41176
    D5        1.06116   0.00315   0.00834   0.00000   0.00867   1.06983
    D6        1.70208  -0.00021  -0.00253   0.00000  -0.00269   1.69939
    D7       -2.40812   0.00105   0.01197   0.00000   0.01114  -2.39698
    D8        1.96923   0.00167   0.01307   0.00000   0.01402   1.98325
    D9        1.43871  -0.00006  -0.01623   0.00000  -0.01677   1.42195
   D10        0.83309   0.00751   0.04564   0.00000   0.04650   0.87958
   D11        3.07901  -0.00663  -0.03656   0.00000  -0.03658   3.04243
   D12       -2.75194  -0.00145  -0.01746   0.00000  -0.01825  -2.77019
   D13        2.92562   0.00612   0.04440   0.00000   0.04502   2.97064
   D14       -1.11164  -0.00802  -0.03779   0.00000  -0.03806  -1.14970
   D15       -0.63981   0.00072  -0.00688   0.00000  -0.00747  -0.64728
   D16       -1.24544   0.00828   0.05499   0.00000   0.05579  -1.18965
   D17        1.00048  -0.00585  -0.02721   0.00000  -0.02728   0.97320
         Item               Value     Threshold  Converged?
 Maximum Force            0.057408     0.000450     NO 
 RMS     Force            0.012871     0.000300     NO 
 Maximum Displacement     0.238762     0.001800     NO 
 RMS     Displacement     0.091353     0.001200     NO 
 Predicted change in Energy=-1.827497D-02
 GradGradGradGradGradGradGradGradGradGradGradGradGradGradGradGradGradGrad

                          Input orientation:                          
 ---------------------------------------------------------------------
 Center     Atomic     Atomic              Coordinates (Angstroms)
 Number     Number      Type              X           Y           Z
 ---------------------------------------------------------------------
    1          6             0       -0.896827    2.947584    0.027938
    2          1             0       -1.935499    3.297715    0.078506
    3          1             0       -0.371144    3.300600    0.930964
    4          1             0       -0.422821    3.421869   -0.847130
    5          8             0       -0.879526    1.482287   -0.052971
    6          1             0       -0.023884    0.963060   -0.091707
    7          6             0        0.212398   -1.603583   -0.341156
    8          1             0        1.151158   -1.441559   -0.877107
    9          1             0        0.312514   -2.511070    0.275008
   10          1             0       -0.600885   -1.763733   -1.064630
   11          8             0       -0.044380   -0.403297    0.421552
   12          1             0       -0.861112   -0.410252    0.845795
 ---------------------------------------------------------------------
                    Distance matrix (angstroms):
                    1          2          3          4          5
     1  C    0.000000
     2  H    1.097264   0.000000
     3  H    1.102914   1.781544   0.000000
     4  H    1.102439   1.777755   1.782974   0.000000
     5  O    1.467632   2.104316   2.129047   2.145052   0.000000
     6  H    2.171331   3.022227   2.574983   2.602990   1.001608
     7  C    4.698908   5.367709   5.099983   5.090647   3.286022
     8  H    4.927264   5.735971   5.298546   5.111873   3.654005
     9  H    5.596469   6.231706   5.888394   6.082737   4.180363
    10  H    4.845390   5.357818   5.448178   5.193215   3.411413
    11  O    3.479943   4.170312   3.753016   4.047798   2.116145
    12  H    3.456187   3.935996   3.744028   4.212274   2.095190
                    6          7          8          9         10
     6  H    0.000000
     7  C    2.589539   0.000000
     8  H    2.789224   1.093053   0.000000
     9  H    3.509591   1.101460   1.781726   0.000000
    10  H    2.952103   1.100224   1.791261   1.785340   0.000000
    11  O    1.459722   1.445111   2.047880   2.142792   2.090268
    12  H    1.861678   1.996325   2.842747   2.473183   2.355706
                   11         12
    11  O    0.000000
    12  H    0.920370   0.000000
 Stoichiometry    C2H8O2
 Framework group  C1[X(C2H8O2)]
 Deg. of freedom    30
 Full point group                 C1      NOp   1
 Largest Abelian subgroup         C1      NOp   1
 Largest concise Abelian subgroup C1      NOp   1
                         Standard orientation:                         
 ---------------------------------------------------------------------
 Center     Atomic     Atomic              Coordinates (Angstroms)
 Number     Number      Type              X           Y           Z
 ---------------------------------------------------------------------
    1          6             0        2.398689    0.082914   -0.090173
    2          1             0        2.999326   -0.110304    0.807541
    3          1             0        2.640389   -0.690791   -0.838090
    4          1             0        2.708040    1.058510   -0.499914
    5          8             0        0.973837    0.050453    0.260093
    6          1             0        0.255852    0.188660   -0.424462
    7          6             0       -2.295320    0.271622    0.011827
    8          1             0       -2.392522    0.965794   -0.826887
    9          1             0       -3.176683   -0.388877    0.024291
   10          1             0       -2.272079    0.836569    0.955642
   11          8             0       -1.042886   -0.426478   -0.168197
   12          1             0       -0.830147   -0.978575    0.536793
 ---------------------------------------------------------------------
 Rotational constants (GHZ):     37.0768925      2.3459191      2.3109066
 Standard basis: 6-31G(d,p) (6D, 7F)
 There are   100 symmetry adapted basis functions of A   symmetry.
 Integral buffers will be    262144 words long.
 Raffenetti 2 integral format.
 Two-electron integral symmetry is turned on.
   100 basis functions,   168 primitive gaussians,   100 cartesian basis functions
    18 alpha electrons       18 beta electrons
       nuclear repulsion energy       133.6391335703 Hartrees.
 NAtoms=   12 NActive=   12 NUniq=   12 SFac= 1.00D+00 NAtFMM=   60 Big=F
 One-electron integrals computed using PRISM.
 NBasis=   100 RedAO= T  NBF=   100
 NBsUse=   100 1.00D-06 NBFU=   100
 Initial guess read from the read-write file:
 Initial guess orbital symmetries:
       Occupied  (A) (A) (A) (A) (A) (A) (A) (A) (A) (A) (A) (A)
                 (A) (A) (A) (A) (A) (A)
       Virtual   (A) (A) (A) (A) (A) (A) (A) (A) (A) (A) (A) (A)
                 (A) (A) (A) (A) (A) (A) (A) (A) (A) (A) (A) (A)
                 (A) (A) (A) (A) (A) (A) (A) (A) (A) (A) (A) (A)
                 (A) (A) (A) (A) (A) (A) (A) (A) (A) (A) (A) (A)
                 (A) (A) (A) (A) (A) (A) (A) (A) (A) (A) (A) (A)
                 (A) (A) (A) (A) (A) (A) (A) (A) (A) (A) (A) (A)
                 (A) (A) (A) (A) (A) (A) (A) (A) (A) (A)
 Harris functional with IExCor=  402 diagonalized for initial guess.
 ExpMin= 1.61D-01 ExpMax= 5.48D+03 ExpMxC= 8.25D+02 IAcc=1 IRadAn=         1 AccDes= 1.00D-06
 HarFok:  IExCor= 402 AccDes= 1.00D-06 IRadAn=         1 IDoV=1
 ScaDFX=  1.000000  1.000000  1.000000  1.000000
 Requested convergence on RMS density matrix=1.00D-08 within 128 cycles.
 Requested convergence on MAX density matrix=1.00D-06.
 Requested convergence on             energy=1.00D-06.
 No special actions if energy rises.
 Keep R1 integrals in memory in canonical form, NReq=    13843582.
 Integral accuracy reduced to 1.0D-05 until final iterations.
 Initial convergence to 1.0D-05 achieved.  Increase integral accuracy.
 SCF Done:  E(RB+HF-LYP) =  -231.422131330     A.U. after   11 cycles
             Convg  =    0.3343D-08             -V/T =  2.0084
             S**2   =   0.0000
 ***** Axes restored to original set *****
 -------------------------------------------------------------------
 Center     Atomic                   Forces (Hartrees/Bohr)
 Number     Number              X              Y              Z
 -------------------------------------------------------------------
    1          6           0.014720274   -0.030216081   -0.001512618
    2          1           0.001000239   -0.005618117   -0.000268587
    3          1          -0.001379407    0.000813939   -0.001541442
    4          1          -0.001045072   -0.001128084    0.001091200
    5          8          -0.022554456    0.064202365   -0.009992360
    6          1          -0.016891155    0.031245970    0.000678170
    7          6          -0.010526457    0.006328836    0.005508224
    8          1          -0.001457263    0.000440467    0.000714112
    9          1           0.000078383    0.004333677    0.001555817
   10          1           0.003450619   -0.000964528   -0.000585719
   11          8           0.082017587   -0.069293603   -0.013869156
   12          1          -0.047413292   -0.000144841    0.018222360
 -------------------------------------------------------------------
 Cartesian Forces:  Max     0.082017587 RMS     0.024543073

 GradGradGradGradGradGradGradGradGradGradGradGradGradGradGradGradGradGrad
 Berny optimization.
 Internal  Forces:  Max     0.047016648 RMS     0.011187779
 Search for a local minimum.
 Step number   4 out of a maximum of  59
 All quantities printed in internal units (Hartrees-Bohrs-Radians)
 Update second derivatives using D2CorX and points  3  4
 Maximum step size (   0.424) exceeded in linear search.
    -- Step size scaled by   0.872
 Quartic linear search produced a step of  1.00031.
 Iteration  1 RMS(Cart)=  0.07595193 RMS(Int)=  0.01069377
 Iteration  2 RMS(Cart)=  0.01572516 RMS(Int)=  0.00127011
 Iteration  3 RMS(Cart)=  0.00006994 RMS(Int)=  0.00126810
 Iteration  4 RMS(Cart)=  0.00000015 RMS(Int)=  0.00126810
 Variable       Old X    -DE/DX   Delta X   Delta X   Delta X     New X
                                 (Linear)    (Quad)   (Total)
    R1        2.07353  -0.00275   0.01206   0.00000   0.01206   2.08559
    R2        2.08420  -0.00166   0.01600   0.00000   0.01600   2.10021
    R3        2.08331  -0.00180   0.01567   0.00000   0.01567   2.09898
    R4        2.77342  -0.03637   0.01930   0.00000   0.01930   2.79272
    R5        1.89277  -0.00909   0.03096   0.00000   0.03460   1.92737
    R6        3.99893   0.02342   0.30183   0.00000   0.29655   4.29548
    R7        3.95934   0.01758   0.18400   0.00000   0.18551   4.14484
    R8        2.75848   0.02353   0.11535   0.00000   0.11874   2.87721
    R9        2.06557  -0.00154   0.00912   0.00000   0.00912   2.07469
   R10        2.08146  -0.00269   0.01499   0.00000   0.01499   2.09644
   R11        2.07912  -0.00203   0.01412   0.00000   0.01412   2.09324
   R12        2.73086  -0.01372   0.00357   0.00000   0.00357   2.73443
   R13        1.73925   0.04702  -0.02804   0.00000  -0.02822   1.71103
    A1        1.88737   0.00167  -0.00862   0.00000  -0.00861   1.87876
    A2        1.88210   0.00267  -0.01057   0.00000  -0.01059   1.87151
    A3        1.90952  -0.00808  -0.00039   0.00000  -0.00040   1.90913
    A4        1.88311  -0.00022  -0.01036   0.00000  -0.01060   1.87251
    A5        1.93808   0.00371   0.00999   0.00000   0.00986   1.94794
    A6        1.96135   0.00041   0.01859   0.00000   0.01844   1.97979
    A7        2.12913  -0.00669   0.08256   0.00000   0.08485   2.21398
    A8        2.65072  -0.00924  -0.00631   0.00000  -0.00747   2.64325
    A9        1.89479   0.00206  -0.00568   0.00000  -0.00542   1.88937
   A10        1.91135  -0.00158   0.00011   0.00000   0.00001   1.91136
   A11        1.86322  -0.00084  -0.01737   0.00000  -0.01726   1.84596
   A12        1.89137   0.00110  -0.00730   0.00000  -0.00759   1.88378
   A13        1.98801  -0.00597   0.02856   0.00000   0.02853   2.01654
   A14        1.91411   0.00522   0.00111   0.00000   0.00089   1.91500
   A15        2.33486   0.00780   0.04981   0.00000   0.04997   2.38484
   A16        1.32831  -0.00754  -0.04697   0.00000  -0.04721   1.28110
   A17        2.20110   0.01037   0.04596   0.00000   0.04750   2.24860
   A18        1.75342  -0.01410  -0.10062   0.00000  -0.10175   1.65167
   A19        1.97652   0.00264   0.02567   0.00000   0.02700   2.00353
    D1       -3.12329   0.00195   0.00702   0.00000   0.00757  -3.11571
    D2       -2.49373  -0.00259  -0.00435   0.00000  -0.00488  -2.49861
    D3       -1.04131   0.00116   0.00231   0.00000   0.00275  -1.03856
    D4       -0.41176  -0.00338  -0.00906   0.00000  -0.00970  -0.42146
    D5        1.06983   0.00380   0.00868   0.00000   0.00930   1.07914
    D6        1.69939  -0.00075  -0.00269   0.00000  -0.00315   1.69624
    D7       -2.39698  -0.00055   0.01114   0.00000   0.01010  -2.38688
    D8        1.98325   0.00225   0.01402   0.00000   0.01475   1.99800
    D9        1.42195   0.00092  -0.01677   0.00000  -0.01777   1.40417
   D10        0.87958   0.00517   0.04651   0.00000   0.04782   0.92740
   D11        3.04243  -0.00381  -0.03659   0.00000  -0.03660   3.00583
   D12       -2.77019  -0.00068  -0.01826   0.00000  -0.01950  -2.78969
   D13        2.97064   0.00357   0.04503   0.00000   0.04609   3.01673
   D14       -1.14970  -0.00540  -0.03807   0.00000  -0.03833  -1.18803
   D15       -0.64728   0.00048  -0.00747   0.00000  -0.00853  -0.65581
   D16       -1.18965   0.00472   0.05581   0.00000   0.05706  -1.13258
   D17        0.97320  -0.00425  -0.02729   0.00000  -0.02735   0.94585
         Item               Value     Threshold  Converged?
 Maximum Force            0.047017     0.000450     NO 
 RMS     Force            0.011188     0.000300     NO 
 Maximum Displacement     0.235072     0.001800     NO 
 RMS     Displacement     0.090919     0.001200     NO 
 Predicted change in Energy=-3.891137D-03
 GradGradGradGradGradGradGradGradGradGradGradGradGradGradGradGradGradGrad

                          Input orientation:                          
 ---------------------------------------------------------------------
 Center     Atomic     Atomic              Coordinates (Angstroms)
 Number     Number      Type              X           Y           Z
 ---------------------------------------------------------------------
    1          6             0       -0.908150    3.041611    0.038714
    2          1             0       -1.946445    3.409648    0.105955
    3          1             0       -0.370512    3.381677    0.950015
    4          1             0       -0.435865    3.546264   -0.830767
    5          8             0       -0.916228    1.567815   -0.070279
    6          1             0       -0.103516    0.954103   -0.125869
    7          6             0        0.237361   -1.694938   -0.329457
    8          1             0        1.177892   -1.519205   -0.867835
    9          1             0        0.357993   -2.605536    0.292642
   10          1             0       -0.575796   -1.884441   -1.057372
   11          8             0       -0.033309   -0.473751    0.398036
   12          1             0       -0.843434   -0.443627    0.801279
 ---------------------------------------------------------------------
                    Distance matrix (angstroms):
                    1          2          3          4          5
     1  C    0.000000
     2  H    1.103644   0.000000
     3  H    1.111381   1.787956   0.000000
     4  H    1.110732   1.782685   1.789566   0.000000
     5  O    1.477843   2.117724   2.151489   2.173327   0.000000
     6  H    2.243259   3.078933   2.668694   2.706776   1.019918
     7  C    4.886987   5.569147   5.270539   5.307989   3.470374
     8  H    5.096513   5.916363   5.451677   5.316443   3.814594
     9  H    5.792915   6.444201   6.067090   6.303721   4.378608
    10  H    5.057455   5.591009   5.639481   5.437231   3.606704
    11  O    3.640361   4.338916   3.909311   4.222858   2.273072
    12  H    3.568274   4.067904   3.857296   4.330003   2.193357
                    6          7          8          9         10
     6  H    0.000000
     7  C    2.678632   0.000000
     8  H    2.882668   1.097876   0.000000
     9  H    3.613748   1.109391   1.788591   0.000000
    10  H    3.024579   1.107698   1.801317   1.792897   0.000000
    11  O    1.522555   1.446999   2.040199   2.169962   2.098225
    12  H    1.833231   2.003113   2.833474   2.525072   2.366887
                   11         12
    11  O    0.000000
    12  H    0.905437   0.000000
 Stoichiometry    C2H8O2
 Framework group  C1[X(C2H8O2)]
 Deg. of freedom    30
 Full point group                 C1      NOp   1
 Largest Abelian subgroup         C1      NOp   1
 Largest concise Abelian subgroup C1      NOp   1
                         Standard orientation:                         
 ---------------------------------------------------------------------
 Center     Atomic     Atomic              Coordinates (Angstroms)
 Number     Number      Type              X           Y           Z
 ---------------------------------------------------------------------
    1          6             0        2.489230    0.069068   -0.106158
    2          1             0        3.106994   -0.136724    0.784936
    3          1             0        2.714794   -0.714990   -0.860838
    4          1             0        2.830275    1.039181   -0.526033
    5          8             0        1.061353    0.063020    0.274828
    6          1             0        0.262584    0.202267   -0.343889
    7          6             0       -2.392950    0.256320    0.002933
    8          1             0       -2.475984    0.951229   -0.842963
    9          1             0       -3.283279   -0.405521   -0.002390
   10          1             0       -2.397802    0.826902    0.952357
   11          8             0       -1.119023   -0.410398   -0.159561
   12          1             0       -0.873911   -0.935649    0.536031
 ---------------------------------------------------------------------
 Rotational constants (GHZ):     37.9712491      2.1475537      2.1226529
 Standard basis: 6-31G(d,p) (6D, 7F)
 There are   100 symmetry adapted basis functions of A   symmetry.
 Integral buffers will be    262144 words long.
 Raffenetti 2 integral format.
 Two-electron integral symmetry is turned on.
   100 basis functions,   168 primitive gaussians,   100 cartesian basis functions
    18 alpha electrons       18 beta electrons
       nuclear repulsion energy       130.4671567570 Hartrees.
 NAtoms=   12 NActive=   12 NUniq=   12 SFac= 1.00D+00 NAtFMM=   60 Big=F
 One-electron integrals computed using PRISM.
 NBasis=   100 RedAO= T  NBF=   100
 NBsUse=   100 1.00D-06 NBFU=   100
 Initial guess read from the read-write file:
 Initial guess orbital symmetries:
       Occupied  (A) (A) (A) (A) (A) (A) (A) (A) (A) (A) (A) (A)
                 (A) (A) (A) (A) (A) (A)
       Virtual   (A) (A) (A) (A) (A) (A) (A) (A) (A) (A) (A) (A)
                 (A) (A) (A) (A) (A) (A) (A) (A) (A) (A) (A) (A)
                 (A) (A) (A) (A) (A) (A) (A) (A) (A) (A) (A) (A)
                 (A) (A) (A) (A) (A) (A) (A) (A) (A) (A) (A) (A)
                 (A) (A) (A) (A) (A) (A) (A) (A) (A) (A) (A) (A)
                 (A) (A) (A) (A) (A) (A) (A) (A) (A) (A) (A) (A)
                 (A) (A) (A) (A) (A) (A) (A) (A) (A) (A)
 Harris functional with IExCor=  402 diagonalized for initial guess.
 ExpMin= 1.61D-01 ExpMax= 5.48D+03 ExpMxC= 8.25D+02 IAcc=1 IRadAn=         1 AccDes= 1.00D-06
 HarFok:  IExCor= 402 AccDes= 1.00D-06 IRadAn=         1 IDoV=1
 ScaDFX=  1.000000  1.000000  1.000000  1.000000
 Requested convergence on RMS density matrix=1.00D-08 within 128 cycles.
 Requested convergence on MAX density matrix=1.00D-06.
 Requested convergence on             energy=1.00D-06.
 No special actions if energy rises.
 Keep R1 integrals in memory in canonical form, NReq=    13843728.
 Integral accuracy reduced to 1.0D-05 until final iterations.
 Initial convergence to 1.0D-05 achieved.  Increase integral accuracy.
 SCF Done:  E(RB+HF-LYP) =  -231.428795086     A.U. after   11 cycles
             Convg  =    0.2908D-08             -V/T =  2.0093
             S**2   =   0.0000
 ***** Axes restored to original set *****
 -------------------------------------------------------------------
 Center     Atomic                   Forces (Hartrees/Bohr)
 Number     Number              X              Y              Z
 -------------------------------------------------------------------
    1          6           0.019312087   -0.030666137   -0.000520082
    2          1           0.004224740   -0.009071542   -0.000715800
    3          1          -0.003508811   -0.002283511   -0.005520837
    4          1          -0.002518862   -0.005830329    0.004109710
    5          8          -0.013293520    0.036881412   -0.005049108
    6          1          -0.017571816    0.039851648    0.002550492
    7          6          -0.010918015    0.006047343   -0.000714475
    8          1          -0.004446397   -0.001078680    0.001672137
    9          1          -0.001387503    0.010523350    0.001672537
   10          1           0.006904955   -0.000034456    0.002515304
   11          8           0.091897737   -0.042972409   -0.028466836
   12          1          -0.068694594   -0.001366688    0.028466959
 -------------------------------------------------------------------
 Cartesian Forces:  Max     0.091897737 RMS     0.024702818

 GradGradGradGradGradGradGradGradGradGradGradGradGradGradGradGradGradGrad
 Berny optimization.
 Internal  Forces:  Max     0.073120586 RMS     0.014422351
 Search for a local minimum.
 Step number   5 out of a maximum of  59
 All quantities printed in internal units (Hartrees-Bohrs-Radians)
 Update second derivatives using D2CorX and points  4  5
     Eigenvalues ---    0.00475   0.01163   0.01163   0.03027   0.04058
     Eigenvalues ---    0.05715   0.05898   0.06584   0.07164   0.07572
     Eigenvalues ---    0.11454   0.12631   0.16000   0.16000   0.16000
     Eigenvalues ---    0.16000   0.16007   0.16353   0.19120   0.23103
     Eigenvalues ---    0.35993   0.35994   0.35994   0.35994   0.35994
     Eigenvalues ---    0.36301   0.39582   0.40358   0.44353   0.59822
     Eigenvalues --- 1000.000001000.000001000.000001000.000001000.00000
     Eigenvalues --- 1000.000001000.000001000.000001000.000001000.00000
     Eigenvalues --- 1000.000001000.000001000.000001000.000001000.00000
     Eigenvalues --- 1000.000001000.000001000.000001000.00000
 RFO step:  Lambda=-2.53110005D-02.
 Quartic linear search produced a step of  0.03016.
 Iteration  1 RMS(Cart)=  0.04241681 RMS(Int)=  0.00256559
 Iteration  2 RMS(Cart)=  0.00251305 RMS(Int)=  0.00050925
 Iteration  3 RMS(Cart)=  0.00000828 RMS(Int)=  0.00050919
 Iteration  4 RMS(Cart)=  0.00000001 RMS(Int)=  0.00050919
 Variable       Old X    -DE/DX   Delta X   Delta X   Delta X     New X
                                 (Linear)    (Quad)   (Total)
    R1        2.08559  -0.00704   0.00036  -0.01391  -0.01354   2.07204
    R2        2.10021  -0.00693   0.00048  -0.01228  -0.01179   2.08841
    R3        2.09898  -0.00694   0.00047  -0.01243  -0.01196   2.08702
    R4        2.79272  -0.04782   0.00058  -0.10571  -0.10512   2.68759
    R5        1.92737  -0.02068   0.00104  -0.03125  -0.02923   1.89813
    R6        4.29548   0.00206   0.00895   0.13125   0.14041   4.43589
    R7        4.14484   0.00835   0.00560   0.09583   0.10043   4.24528
    R8        2.87721   0.02185   0.00358   0.11856   0.12254   2.99975
    R9        2.07469  -0.00480   0.00027  -0.00915  -0.00887   2.06581
   R10        2.09644  -0.00785   0.00045  -0.01498  -0.01453   2.08192
   R11        2.09324  -0.00672   0.00043  -0.01240  -0.01197   2.08127
   R12        2.73443  -0.01748   0.00011  -0.03967  -0.03957   2.69487
   R13        1.71103   0.07312  -0.00085   0.11482   0.11408   1.82511
    A1        1.87876   0.00363  -0.00026   0.01489   0.01478   1.89354
    A2        1.87151   0.00530  -0.00032   0.01868   0.01778   1.88929
    A3        1.90913  -0.01009  -0.00001  -0.05750  -0.05773   1.85139
    A4        1.87251   0.00186  -0.00032   0.01316   0.01272   1.88523
    A5        1.94794   0.00253   0.00030   0.02002   0.02032   1.96826
    A6        1.97979  -0.00258   0.00056  -0.00684  -0.00661   1.97318
    A7        2.21398  -0.01631   0.00256  -0.06552  -0.06370   2.15027
    A8        2.64325  -0.01232  -0.00023  -0.04822  -0.04772   2.59553
    A9        1.88937   0.00333  -0.00016   0.00978   0.00920   1.89857
   A10        1.91136  -0.00230   0.00000  -0.00628  -0.00655   1.90481
   A11        1.84596   0.00196  -0.00052   0.00397   0.00310   1.84906
   A12        1.88378   0.00311  -0.00023   0.01470   0.01497   1.89875
   A13        2.01654  -0.01205   0.00086  -0.05705  -0.05610   1.96045
   A14        1.91500   0.00603   0.00003   0.03538   0.03557   1.95057
   A15        2.38484   0.00227   0.00151   0.00429   0.00620   2.39103
   A16        1.28110  -0.00122  -0.00142  -0.02243  -0.02331   1.25779
   A17        2.24860   0.00685   0.00143   0.05777   0.05996   2.30855
   A18        1.65167  -0.00551  -0.00307  -0.05545  -0.05754   1.59414
   A19        2.00353  -0.00238   0.00081  -0.03158  -0.03094   1.97259
    D1       -3.11571   0.00260   0.00023   0.05073   0.05134  -3.06437
    D2       -2.49861  -0.00363  -0.00015  -0.05999  -0.05992  -2.55853
    D3       -1.03856   0.00215   0.00008   0.04441   0.04447  -0.99409
    D4       -0.42146  -0.00408  -0.00029  -0.06631  -0.06679  -0.48825
    D5        1.07914   0.00461   0.00028   0.07167   0.07183   1.15097
    D6        1.69624  -0.00162  -0.00009  -0.03906  -0.03943   1.65681
    D7       -2.38688  -0.00176   0.00030   0.01629   0.01632  -2.37055
    D8        1.99800   0.00285   0.00044   0.08493   0.08533   2.08333
    D9        1.40417   0.00167  -0.00054   0.03423   0.03266   1.43683
   D10        0.92740   0.00337   0.00144   0.03816   0.04050   0.96790
   D11        3.00583  -0.00164  -0.00110  -0.03206  -0.03314   2.97269
   D12       -2.78969   0.00006  -0.00059   0.01527   0.01393  -2.77575
   D13        3.01673   0.00175   0.00139   0.01921   0.02177   3.03850
   D14       -1.18803  -0.00326  -0.00116  -0.05102  -0.05187  -1.23990
   D15       -0.65581   0.00021  -0.00026   0.02135   0.01990  -0.63591
   D16       -1.13258   0.00190   0.00172   0.02529   0.02774  -1.10484
   D17        0.94585  -0.00311  -0.00083  -0.04493  -0.04590   0.89995
         Item               Value     Threshold  Converged?
 Maximum Force            0.073121     0.000450     NO 
[...]
    R3        2.07725   0.00000   0.00001   0.00001   0.00002   2.07727
    R4        2.68501   0.00000  -0.00004  -0.00003  -0.00006   2.68495
    R5        1.83124  -0.00001  -0.00002   0.00001   0.00000   1.83123
    R6        5.20650  -0.00001   0.00018  -0.00024  -0.00006   5.20644
    R7        4.08391   0.00000   0.00224   0.00280   0.00504   4.08895
    R8        4.08837   0.00000  -0.00176  -0.00294  -0.00470   4.08367
    R9        2.06554   0.00000  -0.00001  -0.00001  -0.00001   2.06552
   R10        2.07728   0.00000  -0.00001  -0.00002  -0.00002   2.07725
   R11        2.07750   0.00000  -0.00001  -0.00003  -0.00003   2.07747
   R12        2.68492   0.00000   0.00001   0.00009   0.00010   2.68502
   R13        1.83127  -0.00001   0.00000  -0.00004  -0.00004   1.83123
    A1        1.88863   0.00000  -0.00003  -0.00001  -0.00004   1.88859
    A2        1.88561   0.00000  -0.00002  -0.00001  -0.00003   1.88559
    A3        1.87022   0.00000   0.00001   0.00003   0.00004   1.87026
    A4        1.89173   0.00000  -0.00003  -0.00003  -0.00006   1.89167
    A5        1.96581   0.00000   0.00002   0.00000   0.00002   1.96583
    A6        1.95900   0.00000   0.00003   0.00002   0.00006   1.95906
    A7        1.88888   0.00000  -0.00001  -0.00007  -0.00007   1.88881
    A8        2.11838   0.00000  -0.00027   0.00008  -0.00019   2.11819
    A9        1.88557   0.00000   0.00001   0.00003   0.00004   1.88561
   A10        1.88857   0.00000   0.00000   0.00006   0.00006   1.88863
   A11        1.87026   0.00000  -0.00002  -0.00001  -0.00004   1.87022
   A12        1.89166   0.00000   0.00004   0.00005   0.00008   1.89175
   A13        1.95907   0.00000  -0.00003  -0.00005  -0.00008   1.95899
   A14        1.96587   0.00000   0.00000  -0.00006  -0.00006   1.96581
   A15        2.11902   0.00000   0.00058  -0.00124  -0.00066   2.11835
   A16        0.76296   0.00000   0.00128   0.00186   0.00314   0.76611
   A17        2.12236   0.00000   0.00039  -0.00156  -0.00117   2.12119
   A18        1.07861   0.00000   0.00101   0.00153   0.00254   1.08115
   A19        1.88889   0.00000  -0.00004  -0.00003  -0.00007   1.88882
    D1       -3.07888   0.00000   0.00016   0.00023   0.00039  -3.07849
    D2       -2.26702   0.00000  -0.00122  -0.00179  -0.00301  -2.27003
    D3       -1.00394   0.00000   0.00015   0.00023   0.00038  -1.00356
    D4       -0.19208   0.00000  -0.00123  -0.00179  -0.00302  -0.19510
    D5        1.13700   0.00000   0.00015   0.00021   0.00036   1.13736
    D6        1.94886   0.00000  -0.00123  -0.00181  -0.00304   1.94582
    D7        3.13937   0.00000   0.00114   0.00282   0.00396  -3.13985
    D8        1.67720   0.00000   0.00092   0.00014   0.00106   1.67826
    D9        2.27050   0.00000  -0.00155  -0.00266  -0.00421   2.26629
   D10        1.89972   0.00000  -0.00135  -0.00195  -0.00330   1.89642
   D11        3.07904   0.00000  -0.00014  -0.00032  -0.00046   3.07857
   D12       -1.94537   0.00000  -0.00157  -0.00267  -0.00423  -1.94960
   D13       -2.31615   0.00000  -0.00136  -0.00196  -0.00332  -2.31947
   D14       -1.13683   0.00000  -0.00015  -0.00033  -0.00048  -1.13731
   D15        0.19558   0.00000  -0.00154  -0.00269  -0.00423   0.19135
   D16       -0.17521   0.00000  -0.00133  -0.00198  -0.00331  -0.17852
   D17        1.00412   0.00000  -0.00013  -0.00035  -0.00048   1.00364
         Item               Value     Threshold  Converged?
 Maximum Force            0.000010     0.000450     YES
 RMS     Force            0.000003     0.000300     YES
 Maximum Displacement     0.007114     0.001800     NO 
 RMS     Displacement     0.002819     0.001200     NO 
 Predicted change in Energy=-4.188506D-09
 Optimization stopped.
    -- Number of steps exceeded,  NStep=  59
    -- Flag reset to prevent archiving.
                           ----------------------------
                           ! Non-Optimized Parameters !
                           ! (Angstroms and Degrees)  !
 --------------------------                            --------------------------
 ! Name  Definition              Value          Derivative Info.                !
 --------------------------------------------------------------------------------
 ! R1    R(1,2)                  1.093          -DE/DX =    0.0                 !
 ! R2    R(1,3)                  1.0994         -DE/DX =    0.0                 !
 ! R3    R(1,4)                  1.0992         -DE/DX =    0.0                 !
 ! R4    R(1,5)                  1.4208         -DE/DX =    0.0                 !
 ! R5    R(5,6)                  0.969          -DE/DX =    0.0                 !
 ! R6    R(5,11)                 2.7551         -DE/DX =    0.0                 !
 ! R7    R(5,12)                 2.1638         -DE/DX =    0.0                 !
 ! R8    R(6,11)                 2.161          -DE/DX =    0.0                 !
 ! R9    R(7,8)                  1.093          -DE/DX =    0.0                 !
 ! R10   R(7,9)                  1.0992         -DE/DX =    0.0                 !
 ! R11   R(7,10)                 1.0993         -DE/DX =    0.0                 !
 ! R12   R(7,11)                 1.4208         -DE/DX =    0.0                 !
 ! R13   R(11,12)                0.969          -DE/DX =    0.0                 !
 ! A1    A(2,1,3)              108.2081         -DE/DX =    0.0                 !
 ! A2    A(2,1,4)              108.0362         -DE/DX =    0.0                 !
 ! A3    A(2,1,5)              107.1581         -DE/DX =    0.0                 !
 ! A4    A(3,1,4)              108.3845         -DE/DX =    0.0                 !
 ! A5    A(3,1,5)              112.634          -DE/DX =    0.0                 !
 ! A6    A(4,1,5)              112.246          -DE/DX =    0.0                 !
 ! A7    A(1,5,6)              108.2208         -DE/DX =    0.0                 !
 ! A8    A(1,5,11)             121.3632         -DE/DX =    0.0                 !
 ! A9    A(8,7,9)              108.0374         -DE/DX =    0.0                 !
 ! A10   A(8,7,10)             108.2103         -DE/DX =    0.0                 !
 ! A11   A(8,7,11)             107.1559         -DE/DX =    0.0                 !
 ! A12   A(9,7,10)             108.3891         -DE/DX =    0.0                 !
 ! A13   A(9,7,11)             112.2421         -DE/DX =    0.0                 !
 ! A14   A(10,7,11)            112.6324         -DE/DX =    0.0                 !
 ! A15   A(5,11,7)             121.3728         -DE/DX =    0.0                 !
 ! A16   A(5,11,12)             43.8947         -DE/DX =    0.0                 !
 ! A17   A(6,11,7)             121.535          -DE/DX =    0.0                 !
 ! A18   A(6,11,12)             61.9451         -DE/DX =    0.0                 !
 ! A19   A(7,11,12)            108.2213         -DE/DX =    0.0                 !
 ! D1    D(2,1,5,6)           -176.3843         -DE/DX =    0.0                 !
 ! D2    D(2,1,5,11)          -130.0633         -DE/DX =    0.0                 !
 ! D3    D(3,1,5,6)            -57.4997         -DE/DX =    0.0                 !
 ! D4    D(3,1,5,11)           -11.1787         -DE/DX =    0.0                 !
 ! D5    D(4,1,5,6)             65.166          -DE/DX =    0.0                 !
 ! D6    D(4,1,5,11)           111.487          -DE/DX =    0.0                 !
 ! D7    D(1,5,11,7)          -179.9002         -DE/DX =    0.0                 !
 ! D8    D(1,5,11,12)           96.1572         -DE/DX =    0.0                 !
 ! D9    D(8,7,11,5)           129.8487         -DE/DX =    0.0                 !
 ! D10   D(8,7,11,6)           108.6567         -DE/DX =    0.0                 !
 ! D11   D(8,7,11,12)          176.3893         -DE/DX =    0.0                 !
 ! D12   D(9,7,11,5)          -111.7038         -DE/DX =    0.0                 !
 ! D13   D(9,7,11,6)          -132.8958         -DE/DX =    0.0                 !
 ! D14   D(9,7,11,12)          -65.1632         -DE/DX =    0.0                 !
 ! D15   D(10,7,11,5)           10.9638         -DE/DX =    0.0                 !
 ! D16   D(10,7,11,6)          -10.2282         -DE/DX =    0.0                 !
 ! D17   D(10,7,11,12)          57.5044         -DE/DX =    0.0                 !
 --------------------------------------------------------------------------------
 GradGradGradGradGradGradGradGradGradGradGradGradGradGradGradGradGradGrad

                          Input orientation:                          
 ---------------------------------------------------------------------
 Center     Atomic     Atomic              Coordinates (Angstroms)
 Number     Number      Type              X           Y           Z
 ---------------------------------------------------------------------
    1          6             0       -0.976060    2.960914    0.133923
    2          1             0       -1.934302    3.306378    0.530324
    3          1             0       -0.241828    2.971754    0.952070
    4          1             0       -0.648680    3.674691   -0.635271
    5          8             0       -1.186158    1.659025   -0.394989
    6          1             0       -0.333231    1.314368   -0.699590
    7          6             0        0.249225   -1.748053   -0.248907
    8          1             0        1.207635   -2.095724   -0.642987
    9          1             0       -0.080385   -2.459742    0.521290
   10          1             0       -0.483676   -1.759782   -1.068253
   11          8             0        0.460201   -0.445320    0.277437
   12          1             0       -0.392748   -0.098889    0.580017
 ---------------------------------------------------------------------
                    Distance matrix (angstroms):
                    1          2          3          4          5
     1  C    0.000000
     2  H    1.093026   0.000000
     3  H    1.099354   1.776039   0.000000
     4  H    1.099235   1.774005   1.783060   0.000000
     5  O    1.420846   2.032165   2.104658   2.099888   0.000000
     6  H    1.954249   2.836234   2.341637   2.382178   0.969048
     7  C    4.880805   5.560779   4.894901   5.510142   3.699979
     8  H    5.562526   6.358548   5.506767   6.061654   4.459808
     9  H    5.507794   6.056834   5.450943   6.268322   4.361943
    10  H    4.896186   5.506881   5.150498   5.454191   3.554576
    11  O    3.699442   4.457896   3.553079   4.363158   2.755163
    12  H    3.146688   3.738275   3.096780   3.972699   2.161110
                    6          7          8          9         10
     6  H    0.000000
     7  C    3.149729   0.000000
     8  H    3.742485   1.093035   0.000000
     9  H    3.974718   1.099248   1.773992   0.000000
    10  H    3.099830   1.099368   1.776019   1.783041   0.000000
    11  O    2.163473   1.420796   2.032159   2.099903   2.104660
    12  H    1.907414   1.954223   2.836250   2.382152   2.341715
                   11         12
    11  O    0.000000
    12  H    0.969067   0.000000
 Stoichiometry    C2H8O2
 Framework group  C1[X(C2H8O2)]
 Deg. of freedom    30
 Full point group                 C1      NOp   1
 Largest Abelian subgroup         C1      NOp   1
 Largest concise Abelian subgroup C1      NOp   1
                         Standard orientation:                         
 ---------------------------------------------------------------------
 Center     Atomic     Atomic              Coordinates (Angstroms)
 Number     Number      Type              X           Y           Z
 ---------------------------------------------------------------------
    1          6             0        2.430655   -0.216496    0.002166
    2          1             0        3.067305    0.118699    0.824983
    3          1             0        2.225159   -1.287501    0.141092
    4          1             0        2.990813   -0.089621   -0.935086
    5          8             0        1.251367    0.575327    0.035327
    6          1             0        0.650315    0.252813   -0.652986
    7          6             0       -2.430947    0.216022   -0.000863
    8          1             0       -3.069701   -0.120363   -0.821573
    9          1             0       -2.988403    0.089587    0.938074
   10          1             0       -2.226736    1.287086   -0.141322
   11          8             0       -1.251182   -0.574885   -0.036672
   12          1             0       -0.648477   -0.251392    0.649760
 ---------------------------------------------------------------------
 Rotational constants (GHZ):     26.3677314      2.0719925      1.9822218

 **********************************************************************

            Population analysis using the SCF density.

 **********************************************************************

 Orbital symmetries:
       Occupied  (A) (A) (A) (A) (A) (A) (A) (A) (A) (A) (A) (A)
                 (A) (A) (A) (A) (A) (A)
       Virtual   (A) (A) (A) (A) (A) (A) (A) (A) (A) (A) (A) (A)
                 (A) (A) (A) (A) (A) (A) (A) (A) (A) (A) (A) (A)
                 (A) (A) (A) (A) (A) (A) (A) (A) (A) (A) (A) (A)
                 (A) (A) (A) (A) (A) (A) (A) (A) (A) (A) (A) (A)
                 (A) (A) (A) (A) (A) (A) (A) (A) (A) (A) (A) (A)
                 (A) (A) (A) (A) (A) (A) (A) (A) (A) (A) (A) (A)
                 (A) (A) (A) (A) (A) (A) (A) (A) (A) (A)
 The electronic state is 1-A.
 Alpha  occ. eigenvalues --  -19.14438 -19.14420 -10.22663 -10.22653  -1.01900
 Alpha  occ. eigenvalues --   -1.00686  -0.68426  -0.67622  -0.51053  -0.49596
 Alpha  occ. eigenvalues --   -0.43738  -0.43509  -0.42261  -0.42059  -0.33798
 Alpha  occ. eigenvalues --   -0.32911  -0.27638  -0.26461
 Alpha virt. eigenvalues --    0.07417   0.11450   0.13536   0.14081   0.16656
 Alpha virt. eigenvalues --    0.16702   0.17537   0.18289   0.19187   0.23390
 Alpha virt. eigenvalues --    0.51745   0.53613   0.55580   0.55683   0.57214
 Alpha virt. eigenvalues --    0.57362   0.77077   0.80790   0.82680   0.83012
 Alpha virt. eigenvalues --    0.83752   0.85092   0.86600   0.90128   0.90961
 Alpha virt. eigenvalues --    0.93432   0.98768   1.00346   1.01705   1.07402
 Alpha virt. eigenvalues --    1.12589   1.12831   1.34776   1.39533   1.39620
 Alpha virt. eigenvalues --    1.41741   1.51274   1.52082   1.61837   1.65216
 Alpha virt. eigenvalues --    1.80909   1.81671   1.92373   1.93007   1.97750
 Alpha virt. eigenvalues --    1.98315   2.03720   2.03730   2.05714   2.06396
 Alpha virt. eigenvalues --    2.06448   2.06753   2.30242   2.34465   2.37262
 Alpha virt. eigenvalues --    2.38262   2.52653   2.55886   2.57512   2.58527
 Alpha virt. eigenvalues --    2.64314   2.68119   2.71296   2.76595   2.79805
 Alpha virt. eigenvalues --    2.80886   2.84627   2.85324   2.97177   2.97207
 Alpha virt. eigenvalues --    3.15869   3.15958   3.37324   3.37760   3.41137
 Alpha virt. eigenvalues --    3.41458   3.51322   3.59032   3.82311   3.89897
 Alpha virt. eigenvalues --    4.41197   4.41362
          Condensed to atoms (all electrons):
              1          2          3          4          5          6
     1  C    4.700815   0.395143   0.375905   0.378839   0.253702  -0.028095
     2  H    0.395143   0.593415  -0.038072  -0.037616  -0.036851   0.005963
     3  H    0.375905  -0.038072   0.654715  -0.049977  -0.036507  -0.002646
     4  H    0.378839  -0.037616  -0.049977   0.654495  -0.035021  -0.007471
     5  O    0.253702  -0.036851  -0.036507  -0.035021   8.117822   0.269455
     6  H   -0.028095   0.005963  -0.002646  -0.007471   0.269455   0.430387
     7  C    0.000006   0.000001  -0.000018  -0.000001   0.000090  -0.000343
     8  H    0.000001   0.000000   0.000001   0.000000  -0.000015  -0.000177
     9  H   -0.000001   0.000000   0.000001   0.000000  -0.000047   0.000406
    10  H   -0.000018   0.000001  -0.000001   0.000001   0.000555  -0.001080
    11  O    0.000090  -0.000014   0.000557  -0.000047  -0.016196   0.034843
    12  H   -0.000349  -0.000180  -0.001086   0.000408   0.035015  -0.017747
              7          8          9         10         11         12
     1  C    0.000006   0.000001  -0.000001  -0.000018   0.000090  -0.000349
     2  H    0.000001   0.000000   0.000000   0.000001  -0.000014  -0.000180
     3  H   -0.000018   0.000001   0.000001  -0.000001   0.000557  -0.001086
     4  H   -0.000001   0.000000   0.000000   0.000001  -0.000047   0.000408
     5  O    0.000090  -0.000015  -0.000047   0.000555  -0.016196   0.035015
     6  H   -0.000343  -0.000177   0.000406  -0.001080   0.034843  -0.017747
     7  C    4.700680   0.395140   0.378818   0.375875   0.253798  -0.028089
     8  H    0.395140   0.593545  -0.037632  -0.038096  -0.036862   0.005961
     9  H    0.378818  -0.037632   0.654651  -0.049997  -0.035035  -0.007477
    10  H    0.375875  -0.038096  -0.049997   0.654909  -0.036522  -0.002639
    11  O    0.253798  -0.036862  -0.035035  -0.036522   8.118187   0.269364
    12  H   -0.028089   0.005961  -0.007477  -0.002639   0.269364   0.430356
 Mulliken atomic charges:
              1
     1  C   -0.076037
     2  H    0.118210
     3  H    0.097129
     4  H    0.096390
     5  O   -0.552002
     6  H    0.316506
     7  C   -0.075956
     8  H    0.118133
     9  H    0.096312
    10  H    0.097013
    11  O   -0.552163
    12  H    0.316463
 Sum of Mulliken charges=   0.00000
 Atomic charges with hydrogens summed into heavy atoms:
              1
     1  C    0.235692
     2  H    0.000000
     3  H    0.000000
     4  H    0.000000
     5  O   -0.235495
     6  H    0.000000
     7  C    0.235503
     8  H    0.000000
     9  H    0.000000
    10  H    0.000000
    11  O   -0.235700
    12  H    0.000000
 Sum of Mulliken charges=   0.00000
 Electronic spatial extent (au):  <R**2>=   615.5361
 Charge=     0.0000 electrons
 Dipole moment (field-independent basis, Debye):
    X=     0.0051    Y=     0.0007    Z=    -0.0005  Tot=     0.0052
 Quadrupole moment (field-independent basis, Debye-Ang):
   XX=   -21.2606   YY=   -28.6996   ZZ=   -24.9350
   XY=    -3.5968   XZ=    -0.7139   YZ=    -0.5204
 Traceless Quadrupole moment (field-independent basis, Debye-Ang):
   XX=     3.7045   YY=    -3.7345   ZZ=     0.0301
   XY=    -3.5968   XZ=    -0.7139   YZ=    -0.5204
 Octapole moment (field-independent basis, Debye-Ang**2):
  XXX=     0.0121  YYY=    -0.0001  ZZZ=    -0.0093  XYY=     0.0008
  XXY=    -0.0071  XXZ=     0.0030  XZZ=     0.0142  YZZ=     0.0048
  YYZ=    -0.0032  XYZ=    -0.0003
 Hexadecapole moment (field-independent basis, Debye-Ang**3):
 XXXX=  -639.5576 YYYY=   -64.7619 ZZZZ=   -38.7971 XXXY=     1.9350
 XXXZ=     7.5336 YYYX=     0.4635 YYYZ=    -0.4178 ZZZX=    -0.5004
 ZZZY=    -0.1835 XXYY=  -131.0785 XXZZ=  -116.1339 YYZZ=   -17.8619
 XXYZ=     1.4836 YYXZ=     0.8382 ZZXY=     3.1162
 N-N= 1.280534172678D+02 E-N=-7.982821714513D+02  KE= 2.294053110459D+02


 IT WAS A GAME, A VERY INTERESTING GAME ONE COULD
 PLAY.  WHENEVER ONE SOLVED ONE OF THE LITTLE PROBLEMS,
 ONE COULD WRITE A PAPER ABOUT IT.  IT WAS VERY EASY IN
 THOSE DAYS FOR ANY SECOND-RATE PHYSICIST TO DO
 FIRST-RATE WORK.  THERE HAS NOT BEEN SUCH A GLORIOUS
 TIME SINCE.  IT IS VERY DIFFICULT NOW FOR A FIRST-RATE
 PHYSICIST TO DO SECOND-RATE WORK.
     P.A.M. DIRAC, ON THE EARLY DAYS OF QUANTUM MECHANICS
                   DIRECTIONS IN PHYSICS, 1978, P. 7
 Error termination request processed by link 9999.
 Error termination via Lnk1e in C:\G03W\l9999.exe at Mon Oct 02 11:54:28 2017.
 Job cpu time:  0 days  0 hours 17 minutes 14.0 seconds.
 File lengths (MBytes):  RWF=     16 Int=      0 D2E=      0 Chk=      5 Scr=      1
