 Entering Link 1 = C:\G03W\l1.exe PID=      2952.
  
 Copyright (c) 1988,1990,1992,1993,1995,1998,2003,2004, Gaussian, Inc.
                  All Rights Reserved.
  
 This is the Gaussian(R) 03 program.  It is based on the
 the Gaussian(R) 98 system (copyright 1998, Gaussian, Inc.),
 the Gaussian(R) 94 system (copyright 1995, Gaussian, Inc.),
 the Gaussian 92(TM) system (copyright 1992, Gaussian, Inc.),
 the Gaussian 90(TM) system (copyright 1990, Gaussian, Inc.),
 the Gaussian 88(TM) system (copyright 1988, Gaussian, Inc.),
 the Gaussian 86(TM) system (copyright 1986, Carnegie Mellon
 University), and the Gaussian 82(TM) system (copyright 1983,
 Carnegie Mellon University). Gaussian is a federally registered
 trademark of Gaussian, Inc.
  
 This software contains proprietary and confidential information,
 including trade secrets, belonging to Gaussian, Inc.
  
 This software is provided under written license and may be
 used, copied, transmitted, or stored only in accord with that
 written license.
  
 The following legend is applicable only to US Government
 contracts under FAR:
  
                    RESTRICTED RIGHTS LEGEND
  
 Use, reproduction and disclosure by the US Government is
 subject to restrictions as set forth in subparagraphs (a)
 and (c) of the Commercial Computer Software - Restricted
 Rights clause in FAR 52.227-19.
  
 Gaussian, Inc.
 340 Quinnipiac St., Bldg. 40, Wallingford CT 06492
  
  
 ---------------------------------------------------------------
 Warning -- This program may not be used in any manner that
 competes with the business of Gaussian, Inc. or will provide
 assistance to any competitor of Gaussian, Inc.  The licensee
 of this program is prohibited from giving any competitor of
 Gaussian, Inc. access to this program.  By using this program,
 the user acknowledges that Gaussian, Inc. is engaged in the
 business of creating and licensing software in the field of
 computational chemistry and represents and warrants to the
 licensee that it is not a competitor of Gaussian, Inc. and that
 it will not use this program in any manner prohibited above.
 ---------------------------------------------------------------
  

 Cite this work as:
 Gaussian 03, Revision C.02,
 M. J. Frisch, G. W. Trucks, H. B. Schlegel, G. E. Scuseria, 
 M. A. Robb, J. R. Cheeseman, J. A. Montgomery, Jr., T. Vreven, 
 K. N. Kudin, J. C. Burant, J. M. Millam, S. S. Iyengar, J. Tomasi, 
 V. Barone, B. Mennucci, M. Cossi, G. Scalmani, N. Rega, 
 G. A. Petersson, H. Nakatsuji, M. Hada, M. Ehara, K. Toyota, 
 R. Fukuda, J. Hasegawa, M. Ishida, T. Nakajima, Y. Honda, O. Kitao, 
 H. Nakai, M. Klene, X. Li, J. E. Knox, H. P. Hratchian, J. B. Cross, 
 C. Adamo, J. Jaramillo, R. Gomperts, R. E. Stratmann, O. Yazyev, 
 A. J. Austin, R. Cammi, C. Pomelli, J. W. Ochterski, P. Y. Ayala, 
 K. Morokuma, G. A. Voth, P. Salvador, J. J. Dannenberg, 
 V. G. Zakrzewski, S. Dapprich, A. D. Daniels, M. C. Strain, 
 O. Farkas, D. K. Malick, A. D. Rabuck, K. Raghavachari, 
 J. B. Foresman, J. V. Ortiz, Q. Cui, A. G. Baboul, S. Clifford, 
 J. Cioslowski, B. B. Stefanov, G. Liu, A. Liashenko, P. Piskorz, 
 I. Komaromi, R. L. Martin, D. J. Fox, T. Keith, M. A. Al-Laham, 
 C. Y. Peng, A. Nanayakkara, M. Challacombe, P. M. W. Gill, 
 B. Johnson, W. Chen, M. W. Wong, C. Gonzalez, and J. A. Pople, 
 Gaussian, Inc., Wallingford CT, 2004.
 
 ******************************************
 Gaussian 03:  IA32W-G03RevC.02 12-Jun-2004
                02-Oct-2017 
 ******************************************
 %mem=300mb
 %chk=ch3oh
 ----------------------------------
 #B3LYP 6-31G** SCF=direct OPT FREQ
 ----------------------------------
 1/14=-1,18=20,26=3,38=1/1,3;
 2/9=110,17=6,18=5,40=1/2;
 3/5=1,6=6,7=101,11=2,16=1,25=1,30=1,74=-5/1,2,3;
 4//1;
 5/5=2,38=5/2;
 6/7=2,8=2,9=2,10=2,28=1/1;
 7//1,2,3,16;
 1/14=-1,18=20/3(1);
 99//99;
 2/9=110/2;
 3/5=1,6=6,7=101,11=2,16=1,25=1,30=1,74=-5/1,2,3;
 4/5=5,16=3/1;
 5/5=2,38=5/2;
 7//1,2,3,16;
 1/14=-1,18=20/3(-5);
 2/9=110/2;
 6/7=2,8=2,9=2,10=2,19=2,28=1/1;
 99/9=1/99;
 -----
 ch3oh
 -----
 Symbolic Z-matrix:
 Charge =  0 Multiplicity = 1
 6                    -0.42585  -1.60921  -6.18351 
 1                    -0.42585  -2.44509  -6.88781 
 1                    -1.3177   -0.99673  -6.38521 
 1                     0.466    -0.99673  -6.38521 
 8                    -0.42585  -2.16829  -4.88024 
 1                    -0.42585  -1.43919  -4.24779 
 

 GradGradGradGradGradGradGradGradGradGradGradGradGradGradGradGradGradGrad
 Berny optimization.
 Initialization pass.
                           ----------------------------
                           !    Initial Parameters    !
                           ! (Angstroms and Degrees)  !
 --------------------------                            --------------------------
 ! Name  Definition              Value          Derivative Info.                !
 --------------------------------------------------------------------------------
 ! R1    R(1,2)                  1.093          estimate D2E/DX2                !
 ! R2    R(1,3)                  1.1005         estimate D2E/DX2                !
 ! R3    R(1,4)                  1.1005         estimate D2E/DX2                !
 ! R4    R(1,5)                  1.4181         estimate D2E/DX2                !
 ! R5    R(5,6)                  0.9652         estimate D2E/DX2                !
 ! A1    A(2,1,3)              107.9083         estimate D2E/DX2                !
 ! A2    A(2,1,4)              107.9083         estimate D2E/DX2                !
 ! A3    A(2,1,5)              106.8982         estimate D2E/DX2                !
 ! A4    A(3,1,4)              108.2637         estimate D2E/DX2                !
 ! A5    A(3,1,5)              112.8199         estimate D2E/DX2                !
 ! A6    A(4,1,5)              112.8199         estimate D2E/DX2                !
 ! A7    A(1,5,6)              107.7206         estimate D2E/DX2                !
 ! D1    D(2,1,5,6)            180.0            estimate D2E/DX2                !
 ! D2    D(3,1,5,6)            -61.5439         estimate D2E/DX2                !
 ! D3    D(4,1,5,6)             61.5439         estimate D2E/DX2                !
 --------------------------------------------------------------------------------
 Trust Radius=3.00D-01 FncErr=1.00D-07 GrdErr=1.00D-06
 Number of steps in this run=  25 maximum allowed number of steps= 100.
 GradGradGradGradGradGradGradGradGradGradGradGradGradGradGradGradGradGrad

                          Input orientation:                          
 ---------------------------------------------------------------------
 Center     Atomic     Atomic              Coordinates (Angstroms)
 Number     Number      Type              X           Y           Z
 ---------------------------------------------------------------------
    1          6             0       -0.425852   -1.609206   -6.183508
    2          1             0       -0.425852   -2.445089   -6.887809
    3          1             0       -1.317701   -0.996729   -6.385212
    4          1             0        0.465997   -0.996729   -6.385212
    5          8             0       -0.425852   -2.168294   -4.880239
    6          1             0       -0.425852   -1.439191   -4.247792
 ---------------------------------------------------------------------
                    Distance matrix (angstroms):
                    1          2          3          4          5
     1  C    0.000000
     2  H    1.093041   0.000000
     3  H    1.100549   1.773625   0.000000
     4  H    1.100549   1.773625   1.783698   0.000000
     5  O    1.418129   2.026562   2.105446   2.105446   0.000000
     6  H    1.943168   2.825159   2.357909   2.357909   0.965184
                    6
     6  H    0.000000
 Stoichiometry    CH4O
 Framework group  CS[SG(CH2O),X(H2)]
 Deg. of freedom     8
 Full point group                 CS      NOp   2
 Largest Abelian subgroup         CS      NOp   2
 Largest concise Abelian subgroup CS      NOp   2
                         Standard orientation:                         
 ---------------------------------------------------------------------
 Center     Atomic     Atomic              Coordinates (Angstroms)
 Number     Number      Type              X           Y           Z
 ---------------------------------------------------------------------
    1          6             0       -0.046680    0.660309    0.000000
    2          1             0       -1.092527    0.978025    0.000000
    3          1             0        0.436670    1.087141    0.891849
    4          1             0        0.436670    1.087141   -0.891849
    5          8             0       -0.046680   -0.757820    0.000000
    6          1             0        0.872708   -1.051599    0.000000
 ---------------------------------------------------------------------
 Rotational constants (GHZ):    127.6999214     24.7793640     23.8992447
 Standard basis: 6-31G(d,p) (6D, 7F)
 There are    35 symmetry adapted basis functions of A'  symmetry.
 There are    15 symmetry adapted basis functions of A"  symmetry.
 Integral buffers will be    262144 words long.
 Raffenetti 2 integral format.
 Two-electron integral symmetry is turned on.
    50 basis functions,    84 primitive gaussians,    50 cartesian basis functions
     9 alpha electrons        9 beta electrons
       nuclear repulsion energy        40.2460450257 Hartrees.
 NAtoms=    6 NActive=    6 NUniq=    5 SFac= 1.58D+00 NAtFMM=   60 Big=F
 One-electron integrals computed using PRISM.
 NBasis=    50 RedAO= T  NBF=    35    15
 NBsUse=    50 1.00D-06 NBFU=    35    15
 Harris functional with IExCor=  402 diagonalized for initial guess.
 ExpMin= 1.61D-01 ExpMax= 5.48D+03 ExpMxC= 8.25D+02 IAcc=1 IRadAn=         1 AccDes= 1.00D-06
 HarFok:  IExCor= 402 AccDes= 1.00D-06 IRadAn=         1 IDoV=1
 ScaDFX=  1.000000  1.000000  1.000000  1.000000
 Initial guess orbital symmetries:
       Occupied  (A') (A') (A') (A') (A') (A") (A') (A') (A")
       Virtual   (A') (A') (A') (A") (A') (A') (A') (A") (A') (A")
                 (A') (A') (A") (A') (A') (A') (A") (A') (A') (A")
                 (A') (A") (A') (A') (A") (A") (A') (A') (A") (A')
                 (A") (A') (A') (A") (A') (A') (A') (A") (A') (A')
                 (A')
 The electronic state of the initial guess is 1-A'.
 Requested convergence on RMS density matrix=1.00D-08 within 128 cycles.
 Requested convergence on MAX density matrix=1.00D-06.
 Requested convergence on             energy=1.00D-06.
 No special actions if energy rises.
 Keep R1 integrals in memory in canonical form, NReq=     1382396.
 Integral accuracy reduced to 1.0D-05 until final iterations.
 Initial convergence to 1.0D-05 achieved.  Increase integral accuracy.
 SCF Done:  E(RB+HF-LYP) =  -115.723965697     A.U. after   11 cycles
             Convg  =    0.7045D-08             -V/T =  2.0088
             S**2   =   0.0000

 **********************************************************************

            Population analysis using the SCF density.

 **********************************************************************

 Orbital symmetries:
       Occupied  (A') (A') (A') (A') (A') (A") (A') (A') (A")
       Virtual   (A') (A') (A') (A") (A') (A') (A') (A") (A') (A")
                 (A') (A') (A') (A") (A') (A') (A") (A') (A') (A")
                 (A') (A") (A') (A") (A') (A") (A') (A') (A") (A')
                 (A") (A') (A') (A") (A') (A') (A') (A") (A') (A')
                 (A')
 The electronic state is 1-A'.
 Alpha  occ. eigenvalues --  -19.14032 -10.22505  -1.01058  -0.67798  -0.50123
 Alpha  occ. eigenvalues --   -0.43328  -0.41890  -0.32944  -0.26492
 Alpha virt. eigenvalues --    0.07706   0.13105   0.16701   0.17526   0.20618
 Alpha virt. eigenvalues --    0.53164   0.55961   0.57160   0.76384   0.83187
 Alpha virt. eigenvalues --    0.84336   0.88113   0.94307   0.96508   1.00999
 Alpha virt. eigenvalues --    1.06733   1.36344   1.40242   1.52372   1.59040
 Alpha virt. eigenvalues --    1.81396   1.92419   1.98397   2.03895   2.05882
 Alpha virt. eigenvalues --    2.06649   2.33329   2.37282   2.54634   2.58196
 Alpha virt. eigenvalues --    2.66913   2.69656   2.78798   2.84838   2.97347
 Alpha virt. eigenvalues --    3.15640   3.35565   3.41204   3.51578   3.84012
 Alpha virt. eigenvalues --    4.40851
          Condensed to atoms (all electrons):
              1          2          3          4          5          6
     1  C    4.700947   0.397020   0.374567   0.374567   0.260212  -0.033362
     2  H    0.397020   0.588771  -0.037989  -0.037989  -0.037637   0.007021
     3  H    0.374567  -0.037989   0.668265  -0.052414  -0.036340  -0.005559
     4  H    0.374567  -0.037989  -0.052414   0.668265  -0.036340  -0.005559
     5  O    0.260212  -0.037637  -0.036340  -0.036340   8.095382   0.286566
     6  H   -0.033362   0.007021  -0.005559  -0.005559   0.286566   0.444846
 Mulliken atomic charges:
              1
     1  C   -0.073950
     2  H    0.120803
     3  H    0.089470
     4  H    0.089470
     5  O   -0.531842
     6  H    0.306048
 Sum of Mulliken charges=   0.00000
 Atomic charges with hydrogens summed into heavy atoms:
              1
     1  C    0.225794
     2  H    0.000000
     3  H    0.000000
     4  H    0.000000
     5  O   -0.225794
     6  H    0.000000
 Sum of Mulliken charges=   0.00000
 Electronic spatial extent (au):  <R**2>=    84.0261
 Charge=     0.0000 electrons
 Dipole moment (field-independent basis, Debye):
    X=     1.4121    Y=     0.8800    Z=     0.0000  Tot=     1.6638
 Quadrupole moment (field-independent basis, Debye-Ang):
   XX=   -11.5742   YY=   -12.9896   ZZ=   -13.5511
   XY=    -2.0925   XZ=     0.0000   YZ=     0.0000
 Traceless Quadrupole moment (field-independent basis, Debye-Ang):
   XX=     1.1308   YY=    -0.2846   ZZ=    -0.8461
   XY=    -2.0925   XZ=     0.0000   YZ=     0.0000
 Octapole moment (field-independent basis, Debye-Ang**2):
  XXX=     1.1416  YYY=    -4.0853  ZZZ=     0.0000  XYY=     2.1396
  XXY=    -2.2823  XXZ=     0.0000  XZZ=     0.5426  YZZ=    -0.6221
  YYZ=     0.0000  XYZ=     0.0000
 Hexadecapole moment (field-independent basis, Debye-Ang**3):
 XXXX=   -18.6993 YYYY=   -60.8235 ZZZZ=   -19.1466 XXXY=    -0.9939
 XXXZ=     0.0000 YYYX=    -1.1352 YYYZ=     0.0000 ZZZX=     0.0000
 ZZZY=     0.0000 XXYY=   -12.0637 XXZZ=    -6.6860 YYZZ=   -13.6806
 XXYZ=     0.0000 YYXZ=     0.0000 ZZXY=     0.7605
 N-N= 4.024604502571D+01 E-N=-3.516302981523D+02  KE= 1.147102113231D+02
 Symmetry A'   KE= 1.080818724923D+02
 Symmetry A"   KE= 6.628338830798D+00
 ***** Axes restored to original set *****
 -------------------------------------------------------------------
 Center     Atomic                   Forces (Hartrees/Bohr)
 Number     Number              X              Y              Z
 -------------------------------------------------------------------
    1          6           0.000000000   -0.000010721   -0.000003937
    2          1           0.000000000   -0.000003033    0.000005541
    3          1           0.000000569    0.000001720   -0.000000905
    4          1          -0.000000569    0.000001720   -0.000000905
    5          8           0.000000000    0.000005766    0.000001270
    6          1           0.000000000    0.000004549   -0.000001064
 -------------------------------------------------------------------
 Cartesian Forces:  Max     0.000010721 RMS     0.000003615

 GradGradGradGradGradGradGradGradGradGradGradGradGradGradGradGradGradGrad
 Berny optimization.
 Internal  Forces:  Max     0.000002881 RMS     0.000001838
 Search for a local minimum.
 Step number   1 out of a maximum of  25
 All quantities printed in internal units (Hartrees-Bohrs-Radians)
 Second derivative matrix not updated -- first step.
 The second derivative matrix:
                          R1        R2        R3        R4        R5
           R1           0.34464
           R2           0.00000   0.33622
           R3           0.00000   0.00000   0.33622
           R4           0.00000   0.00000   0.00000   0.42743
           R5           0.00000   0.00000   0.00000   0.00000   0.54373
           A1           0.00000   0.00000   0.00000   0.00000   0.00000
           A2           0.00000   0.00000   0.00000   0.00000   0.00000
           A3           0.00000   0.00000   0.00000   0.00000   0.00000
           A4           0.00000   0.00000   0.00000   0.00000   0.00000
           A5           0.00000   0.00000   0.00000   0.00000   0.00000
           A6           0.00000   0.00000   0.00000   0.00000   0.00000
           A7           0.00000   0.00000   0.00000   0.00000   0.00000
           D1           0.00000   0.00000   0.00000   0.00000   0.00000
           D2           0.00000   0.00000   0.00000   0.00000   0.00000
           D3           0.00000   0.00000   0.00000   0.00000   0.00000
                          A1        A2        A3        A4        A5
           A1           0.16000
           A2           0.00000   0.16000
           A3           0.00000   0.00000   0.16000
           A4           0.00000   0.00000   0.00000   0.16000
           A5           0.00000   0.00000   0.00000   0.00000   0.16000
           A6           0.00000   0.00000   0.00000   0.00000   0.00000
           A7           0.00000   0.00000   0.00000   0.00000   0.00000
           D1           0.00000   0.00000   0.00000   0.00000   0.00000
           D2           0.00000   0.00000   0.00000   0.00000   0.00000
           D3           0.00000   0.00000   0.00000   0.00000   0.00000
                          A6        A7        D1        D2        D3
           A6           0.16000
           A7           0.00000   0.16000
           D1           0.00000   0.00000   0.01452
           D2           0.00000   0.00000   0.00000   0.01452
           D3           0.00000   0.00000   0.00000   0.00000   0.01452
     Eigenvalues ---    0.01452   0.09773   0.10479   0.16000   0.16000
     Eigenvalues ---    0.16000   0.16000   0.33622   0.33622   0.34464
     Eigenvalues ---    0.42743   0.543731000.000001000.000001000.00000
 RFO step:  Lambda= 0.00000000D+00.
 Linear search not attempted -- first point.
 Iteration  1 RMS(Cart)=  0.00001306 RMS(Int)=  0.00000000
 Iteration  2 RMS(Cart)=  0.00000000 RMS(Int)=  0.00000000
 Variable       Old X    -DE/DX   Delta X   Delta X   Delta X     New X
                                 (Linear)    (Quad)   (Total)
    R1        2.06555   0.00000   0.00000  -0.00001  -0.00001   2.06554
    R2        2.07974   0.00000   0.00000   0.00000   0.00000   2.07974
    R3        2.07974   0.00000   0.00000   0.00000   0.00000   2.07974
    R4        2.67988   0.00000   0.00000   0.00000   0.00000   2.67987
    R5        1.82393   0.00000   0.00000   0.00000   0.00000   1.82393
    A1        1.88335   0.00000   0.00000   0.00002   0.00002   1.88338
    A2        1.88335   0.00000   0.00000   0.00002   0.00002   1.88338
    A3        1.86572   0.00000   0.00000   0.00000   0.00000   1.86573
    A4        1.88956   0.00000   0.00000  -0.00003  -0.00003   1.88953
    A5        1.96908   0.00000   0.00000  -0.00001  -0.00001   1.96907
    A6        1.96908   0.00000   0.00000  -0.00001  -0.00001   1.96907
    A7        1.88008   0.00000   0.00000   0.00000   0.00000   1.88008
    D1        3.14159   0.00000   0.00000   0.00000   0.00000   3.14159
    D2       -1.07414   0.00000   0.00000   0.00003   0.00003  -1.07412
    D3        1.07414   0.00000   0.00000  -0.00003  -0.00003   1.07412
         Item               Value     Threshold  Converged?
 Maximum Force            0.000003     0.000450     YES
 RMS     Force            0.000002     0.000300     YES
 Maximum Displacement     0.000020     0.001800     YES
 RMS     Displacement     0.000013     0.001200     YES
 Predicted change in Energy=-1.984345D-10
 Optimization completed.
    -- Stationary point found.
                           ----------------------------
                           !   Optimized Parameters   !
                           ! (Angstroms and Degrees)  !
 --------------------------                            --------------------------
 ! Name  Definition              Value          Derivative Info.                !
 --------------------------------------------------------------------------------
 ! R1    R(1,2)                  1.093          -DE/DX =    0.0                 !
 ! R2    R(1,3)                  1.1005         -DE/DX =    0.0                 !
 ! R3    R(1,4)                  1.1005         -DE/DX =    0.0                 !
 ! R4    R(1,5)                  1.4181         -DE/DX =    0.0                 !
 ! R5    R(5,6)                  0.9652         -DE/DX =    0.0                 !
 ! A1    A(2,1,3)              107.9083         -DE/DX =    0.0                 !
 ! A2    A(2,1,4)              107.9083         -DE/DX =    0.0                 !
 ! A3    A(2,1,5)              106.8982         -DE/DX =    0.0                 !
 ! A4    A(3,1,4)              108.2637         -DE/DX =    0.0                 !
 ! A5    A(3,1,5)              112.8199         -DE/DX =    0.0                 !
 ! A6    A(4,1,5)              112.8199         -DE/DX =    0.0                 !
 ! A7    A(1,5,6)              107.7206         -DE/DX =    0.0                 !
 ! D1    D(2,1,5,6)            180.0            -DE/DX =    0.0                 !
 ! D2    D(3,1,5,6)            -61.5439         -DE/DX =    0.0                 !
 ! D3    D(4,1,5,6)             61.5439         -DE/DX =    0.0                 !
 --------------------------------------------------------------------------------
 GradGradGradGradGradGradGradGradGradGradGradGradGradGradGradGradGradGrad

 1|1|UNPC-UNK|FOpt|RB3LYP|6-31G(d,p)|C1H4O1|PCUSER|02-Oct-2017|0||#B3LY
 P 6-31G** SCF=DIRECT OPT FREQ||ch3oh||0,1|C,6.183507926,-1.0257791128,
 1.3109815998|H,6.887808732,-1.3553199565,2.0791629663|H,6.385211868,-1
 .6039291018,0.396506052|H,6.385211868,0.0353005097,1.0997164302|O,4.88
 023851,-1.2461953737,1.8247863912|H,4.247791527,-0.9587516426,1.154736
 1612||Version=IA32W-G03RevC.02|State=1-A'|HF=-115.7239657|RMSD=7.045e-
 009|RMSF=3.615e-006|Dipole=0.,0.6470522,-0.0991366|PG=CS [SG(C1H2O1),X
 (H2)]||@


 TIME IS NATURE'S WAY OF MAKING SURE EVERYTHING
 DOESN'T HAPPEN AT ONCE.
                     - WOODY ALLEN
 Job cpu time:  0 days  0 hours  0 minutes 16.0 seconds.
 File lengths (MBytes):  RWF=     11 Int=      0 D2E=      0 Chk=      4 Scr=      1
 Normal termination of Gaussian 03 at Mon Oct 02 11:27:05 2017.
 Link1:  Proceeding to internal job step number  2.
 --------------------------------------------------------------------
 #N Geom=AllCheck Guess=Read SCRF=Check GenChk RB3LYP/6-31G(d,p) Freq
 --------------------------------------------------------------------
 1/10=4,29=7,30=1,38=1,40=1,46=1/1,3;
 2/40=1/2;
 3/5=1,6=6,7=101,11=2,16=1,25=1,30=1,70=2,71=2,74=-5/1,2,3;
 4/5=1,7=1/1;
 5/5=2,38=6/2;
 8/6=4,10=90,11=11/1;
 11/6=1,8=1,9=11,15=111,16=1/1,2,10;
 10/6=1/2;
 6/7=2,8=2,9=2,10=2,18=1,28=1/1;
 7/8=1,10=1,25=1/1,2,3,16;
 1/10=4,30=1,46=1/3;
 99//99;
 -----
 ch3oh
 -----
 Redundant internal coordinates taken from checkpoint file:
 ch3oh.chk
 Charge =  0 Multiplicity = 1
 C,0,6.183507926,-1.0257791128,1.3109815998
 H,0,6.887808732,-1.3553199565,2.0791629663
 H,0,6.385211868,-1.6039291018,0.396506052
 H,0,6.385211868,0.0353005097,1.0997164302
 O,0,4.88023851,-1.2461953737,1.8247863912
 H,0,4.247791527,-0.9587516426,1.1547361612
 Recover connectivity data from disk.

 GradGradGradGradGradGradGradGradGradGradGradGradGradGradGradGradGradGrad
 Berny optimization.
 Initialization pass.
                           ----------------------------
                           !    Initial Parameters    !
                           ! (Angstroms and Degrees)  !
 --------------------------                            --------------------------
 ! Name  Definition              Value          Derivative Info.                !
 --------------------------------------------------------------------------------
 ! R1    R(1,2)                  1.093          calculate D2E/DX2 analytically  !
 ! R2    R(1,3)                  1.1005         calculate D2E/DX2 analytically  !
 ! R3    R(1,4)                  1.1005         calculate D2E/DX2 analytically  !
 ! R4    R(1,5)                  1.4181         calculate D2E/DX2 analytically  !
 ! R5    R(5,6)                  0.9652         calculate D2E/DX2 analytically  !
 ! A1    A(2,1,3)              107.9083         calculate D2E/DX2 analytically  !
 ! A2    A(2,1,4)              107.9083         calculate D2E/DX2 analytically  !
 ! A3    A(2,1,5)              106.8982         calculate D2E/DX2 analytically  !
 ! A4    A(3,1,4)              108.2637         calculate D2E/DX2 analytically  !
 ! A5    A(3,1,5)              112.8199         calculate D2E/DX2 analytically  !
 ! A6    A(4,1,5)              112.8199         calculate D2E/DX2 analytically  !
 ! A7    A(1,5,6)              107.7206         calculate D2E/DX2 analytically  !
 ! D1    D(2,1,5,6)            180.0            calculate D2E/DX2 analytically  !
 ! D2    D(3,1,5,6)            -61.5439         calculate D2E/DX2 analytically  !
 ! D3    D(4,1,5,6)             61.5439         calculate D2E/DX2 analytically  !
 --------------------------------------------------------------------------------
 Trust Radius=3.00D-01 FncErr=1.00D-07 GrdErr=1.00D-07
 Number of steps in this run=   2 maximum allowed number of steps=   2.
 GradGradGradGradGradGradGradGradGradGradGradGradGradGradGradGradGradGrad

                          Input orientation:                          
 ---------------------------------------------------------------------
 Center     Atomic     Atomic              Coordinates (Angstroms)
 Number     Number      Type              X           Y           Z
 ---------------------------------------------------------------------
    1          6             0        6.183508   -1.025779    1.310982
    2          1             0        6.887809   -1.355320    2.079163
    3          1             0        6.385212   -1.603929    0.396506
    4          1             0        6.385212    0.035301    1.099716
    5          8             0        4.880239   -1.246195    1.824786
    6          1             0        4.247792   -0.958752    1.154736
 ---------------------------------------------------------------------
                    Distance matrix (angstroms):
                    1          2          3          4          5
     1  C    0.000000
     2  H    1.093041   0.000000
     3  H    1.100549   1.773625   0.000000
     4  H    1.100549   1.773625   1.783698   0.000000
     5  O    1.418129   2.026562   2.105446   2.105446   0.000000
     6  H    1.943168   2.825159   2.357909   2.357909   0.965184
                    6
     6  H    0.000000
 Stoichiometry    CH4O
 Framework group  CS[SG(CH2O),X(H2)]
 Deg. of freedom     8
 Full point group                 CS      NOp   2
 Largest Abelian subgroup         CS      NOp   2
 Largest concise Abelian subgroup CS      NOp   2
                         Standard orientation:                         
 ---------------------------------------------------------------------
 Center     Atomic     Atomic              Coordinates (Angstroms)
 Number     Number      Type              X           Y           Z
 ---------------------------------------------------------------------
    1          6             0       -0.046680    0.660309    0.000000
    2          1             0       -1.092527    0.978025    0.000000
    3          1             0        0.436670    1.087141    0.891849
    4          1             0        0.436670    1.087141   -0.891849
    5          8             0       -0.046680   -0.757820    0.000000
    6          1             0        0.872708   -1.051599    0.000000
 ---------------------------------------------------------------------
 Rotational constants (GHZ):    127.6999214     24.7793640     23.8992447
 Standard basis: 6-31G(d,p) (6D, 7F)
 There are    35 symmetry adapted basis functions of A'  symmetry.
 There are    15 symmetry adapted basis functions of A"  symmetry.
 Integral buffers will be    262144 words long.
 Raffenetti 2 integral format.
 Two-electron integral symmetry is turned on.
    50 basis functions,    84 primitive gaussians,    50 cartesian basis functions
     9 alpha electrons        9 beta electrons
       nuclear repulsion energy        40.2460450257 Hartrees.
 NAtoms=    6 NActive=    6 NUniq=    5 SFac= 1.58D+00 NAtFMM=   60 Big=F
 One-electron integrals computed using PRISM.
 NBasis=    50 RedAO= T  NBF=    35    15
 NBsUse=    50 1.00D-06 NBFU=    35    15
 Initial guess read from the checkpoint file:
 ch3oh.chk
 Initial guess orbital symmetries:
       Occupied  (A') (A') (A') (A') (A') (A") (A') (A') (A")
       Virtual   (A') (A') (A') (A") (A') (A') (A') (A") (A') (A")
                 (A') (A') (A') (A") (A') (A') (A") (A') (A') (A")
                 (A') (A") (A') (A") (A') (A") (A') (A') (A") (A')
                 (A") (A') (A') (A") (A') (A') (A') (A") (A') (A')
                 (A')
 Requested convergence on RMS density matrix=1.00D-08 within 128 cycles.
 Requested convergence on MAX density matrix=1.00D-06.
 Requested convergence on             energy=1.00D-06.
 No special actions if energy rises.
 Keep R1 integrals in memory in canonical form, NReq=     1382396.
 SCF Done:  E(RB+HF-LYP) =  -115.723965697     A.U. after    1 cycles
             Convg  =    0.1469D-08             -V/T =  2.0088
             S**2   =   0.0000
 Range of M.O.s used for correlation:     1    50
 NBasis=    50 NAE=     9 NBE=     9 NFC=     0 NFV=     0
 NROrb=     50 NOA=     9 NOB=     9 NVA=    41 NVB=    41
 Symmetrizing basis deriv contribution to polar:
 IMax=3 JMax=2 DiffMx= 0.00D+00
 G2DrvN: will do    7 centers at a time, making    1 passes doing MaxLOS=2.
 FoFDir/FoFCou used for L=0 through L=2.
 DoAtom=TTTTTT
          Differentiating once with respect to electric field.
                with respect to dipole field.
          Differentiating once with respect to nuclear coordinates.
          Store integrals in memory, NReq=     1243872.
          There are  18 degrees of freedom in the 1st order CPHF.
    18 vectors were produced by pass  0.
 AX will form  18 AO Fock derivatives at one time.
    18 vectors were produced by pass  1.
    18 vectors were produced by pass  2.
    18 vectors were produced by pass  3.
    18 vectors were produced by pass  4.
     6 vectors were produced by pass  5.
     1 vectors were produced by pass  6.
 Inv2:  IOpt= 1 Iter= 1 AM= 1.55D-15 Conv= 1.00D-12.
 Inverted reduced A of dimension   97 with in-core refinement.
 Isotropic polarizability for W=    0.000000       16.02 Bohr**3.
 End of Minotr Frequency-dependent properties file   721 does not exist.

 **********************************************************************

            Population analysis using the SCF density.

 **********************************************************************

 Orbital symmetries:
       Occupied  (A') (A') (A') (A') (A') (A") (A') (A') (A")
       Virtual   (A') (A') (A') (A") (A') (A') (A') (A") (A') (A")
                 (A') (A') (A') (A") (A') (A') (A") (A') (A') (A")
                 (A') (A") (A') (A") (A') (A") (A') (A') (A") (A')
                 (A") (A') (A') (A") (A') (A') (A') (A") (A') (A')
                 (A')
 The electronic state is 1-A'.
 Alpha  occ. eigenvalues --  -19.14032 -10.22505  -1.01058  -0.67798  -0.50123
 Alpha  occ. eigenvalues --   -0.43328  -0.41890  -0.32944  -0.26492
 Alpha virt. eigenvalues --    0.07706   0.13105   0.16701   0.17526   0.20618
 Alpha virt. eigenvalues --    0.53164   0.55961   0.57160   0.76384   0.83187
 Alpha virt. eigenvalues --    0.84336   0.88113   0.94307   0.96508   1.00999
 Alpha virt. eigenvalues --    1.06733   1.36344   1.40242   1.52372   1.59040
 Alpha virt. eigenvalues --    1.81396   1.92419   1.98397   2.03895   2.05882
 Alpha virt. eigenvalues --    2.06649   2.33329   2.37282   2.54634   2.58196
 Alpha virt. eigenvalues --    2.66913   2.69656   2.78798   2.84838   2.97347
 Alpha virt. eigenvalues --    3.15640   3.35565   3.41204   3.51578   3.84012
 Alpha virt. eigenvalues --    4.40851
          Condensed to atoms (all electrons):
              1          2          3          4          5          6
     1  C    4.700947   0.397020   0.374567   0.374567   0.260212  -0.033362
     2  H    0.397020   0.588771  -0.037989  -0.037989  -0.037637   0.007021
     3  H    0.374567  -0.037989   0.668265  -0.052414  -0.036340  -0.005559
     4  H    0.374567  -0.037989  -0.052414   0.668265  -0.036340  -0.005559
     5  O    0.260212  -0.037637  -0.036340  -0.036340   8.095382   0.286566
     6  H   -0.033362   0.007021  -0.005559  -0.005559   0.286566   0.444846
 Mulliken atomic charges:
              1
     1  C   -0.073950
     2  H    0.120803
     3  H    0.089470
     4  H    0.089470
     5  O   -0.531842
     6  H    0.306049
 Sum of Mulliken charges=   0.00000
 Atomic charges with hydrogens summed into heavy atoms:
              1
     1  C    0.225794
     2  H    0.000000
     3  H    0.000000
     4  H    0.000000
     5  O   -0.225794
     6  H    0.000000
 Sum of Mulliken charges=   0.00000
 APT atomic charges:
              1
     1  C    0.517762
     2  H   -0.022680
     3  H   -0.083698
     4  H   -0.083698
     5  O   -0.565577
     6  H    0.237890
 Sum of APT charges=   0.00000
 APT Atomic charges with hydrogens summed into heavy atoms:
              1
     1  C    0.327687
     2  H    0.000000
     3  H    0.000000
     4  H    0.000000
     5  O   -0.327687
     6  H    0.000000
 Sum of APT charges=   0.00000
 Electronic spatial extent (au):  <R**2>=    84.0261
 Charge=     0.0000 electrons
 Dipole moment (field-independent basis, Debye):
    X=     1.4121    Y=     0.8800    Z=     0.0000  Tot=     1.6638
 Quadrupole moment (field-independent basis, Debye-Ang):
   XX=   -11.5742   YY=   -12.9896   ZZ=   -13.5511
   XY=    -2.0925   XZ=     0.0000   YZ=     0.0000
 Traceless Quadrupole moment (field-independent basis, Debye-Ang):
   XX=     1.1308   YY=    -0.2846   ZZ=    -0.8461
   XY=    -2.0925   XZ=     0.0000   YZ=     0.0000
 Octapole moment (field-independent basis, Debye-Ang**2):
  XXX=     1.1416  YYY=    -4.0853  ZZZ=     0.0000  XYY=     2.1396
  XXY=    -2.2823  XXZ=     0.0000  XZZ=     0.5426  YZZ=    -0.6221
  YYZ=     0.0000  XYZ=     0.0000
 Hexadecapole moment (field-independent basis, Debye-Ang**3):
 XXXX=   -18.6993 YYYY=   -60.8235 ZZZZ=   -19.1466 XXXY=    -0.9939
 XXXZ=     0.0000 YYYX=    -1.1352 YYYZ=     0.0000 ZZZX=     0.0000
 ZZZY=     0.0000 XXYY=   -12.0637 XXZZ=    -6.6860 YYZZ=   -13.6806
 XXYZ=     0.0000 YYXZ=     0.0000 ZZXY=     0.7605
 N-N= 4.024604502571D+01 E-N=-3.516302991959D+02  KE= 1.147102117277D+02
 Symmetry A'   KE= 1.080818727801D+02
 Symmetry A"   KE= 6.628338947637D+00
  Exact polarizability:  16.435  -1.108  17.321   0.000   0.000  14.295
 Approx polarizability:  21.027  -0.803  21.492   0.000   0.000  17.440
 Full mass-weighted force constant matrix:
 Low frequencies ---  -24.2236   -0.0015   -0.0013   -0.0008    6.1949   17.3356
 Low frequencies ---  335.0938 1061.8868 1094.8197
 Diagonal vibrational polarizability:
        0.1760841       3.5793794      30.1201575
 Harmonic frequencies (cm**-1), IR intensities (KM/Mole), Raman scattering
 activities (A**4/AMU), depolarization ratios for plane and unpolarized
 incident light, reduced masses (AMU), force constants (mDyne/A),
 and normal coordinates:
                     1                      2                      3
                    A"                     A'                     A'
 Frequencies --   335.0863              1061.8867              1094.8197
 Red. masses --     1.0693                 1.9286                 1.8593
 Frc consts  --     0.0707                 1.2813                 1.3131
 IR Inten    --   124.5428               118.6912                 4.0906
 Atom AN      X      Y      Z        X      Y      Z        X      Y      Z
   1   6     0.00   0.00   0.00    -0.07   0.17   0.00     0.07   0.21   0.00
   2   1     0.00   0.00   0.30     0.09   0.65   0.00    -0.10  -0.38   0.00
   3   1     0.23  -0.04  -0.10     0.22  -0.13  -0.03    -0.22   0.41   0.04
   4   1    -0.23   0.04  -0.10     0.22  -0.13   0.03    -0.22   0.41  -0.04
   5   8     0.00   0.00  -0.06     0.00  -0.19   0.00    -0.01  -0.15   0.00
   6   1     0.00   0.00   0.88     0.25   0.55   0.00    -0.14  -0.57   0.00
                     4                      5                      6
                    A"                     A'                     A'
 Frequencies --  1178.9333              1385.1991              1499.6330
 Red. masses --     1.2712                 1.2847                 1.1330
 Frc consts  --     1.0410                 1.4523                 1.5012
 IR Inten    --     0.5669                27.5888                 6.9914
 Atom AN      X      Y      Z        X      Y      Z        X      Y      Z
   1   6     0.00   0.00   0.14     0.12  -0.02   0.00     0.03  -0.10   0.00
   2   1     0.00   0.00  -0.26     0.01  -0.42   0.00     0.23   0.64   0.00
   3   1     0.05   0.64  -0.19    -0.21   0.12   0.11    -0.31   0.40  -0.04
   4   1    -0.05  -0.64  -0.19    -0.21   0.12  -0.11    -0.31   0.40   0.04
   5   8     0.00   0.00  -0.06    -0.08  -0.02   0.00     0.00  -0.01   0.00
   6   1     0.00   0.00   0.00     0.20   0.79   0.00     0.00  -0.02   0.00
                     7                      8                      9
                    A"                     A'                     A'
 Frequencies --  1508.4802              1526.5575              2988.8521
 Red. masses --     1.0487                 1.0535                 1.0377
 Frc consts  --     1.4060                 1.4464                 5.4616
 IR Inten    --     1.5055                 4.2344                63.9410
 Atom AN      X      Y      Z        X      Y      Z        X      Y      Z
   1   6     0.00   0.00  -0.06     0.04   0.05   0.00    -0.03  -0.04   0.00
   2   1     0.00   0.00   0.73     0.06   0.19   0.00    -0.25   0.07   0.00
   3   1    -0.40   0.27   0.06    -0.39  -0.39   0.41     0.29   0.25   0.56
   4   1     0.40  -0.27   0.06    -0.39  -0.39  -0.41     0.29   0.25  -0.56
   5   8     0.00   0.00  -0.01     0.02   0.01   0.00     0.00   0.00   0.00
   6   1     0.00   0.00  -0.01    -0.02  -0.11   0.00     0.00   0.00   0.00
                    10                     11                     12
                    A"                     A'                     A'
 Frequencies --  3034.4628              3122.3668              3825.7221
 Red. masses --     1.1051                 1.0962                 1.0665
 Frc consts  --     5.9956                 6.2969                 9.1969
 IR Inten    --    82.7302                34.2479                13.2163
 Atom AN      X      Y      Z        X      Y      Z        X      Y      Z
   1   6     0.00   0.00   0.09    -0.09   0.01   0.00     0.00   0.00   0.00
   2   1     0.00   0.00   0.03     0.93  -0.27   0.00    -0.02   0.00   0.00
   3   1    -0.33  -0.26  -0.57     0.06   0.06   0.14     0.00   0.00   0.00
   4   1     0.33   0.26  -0.57     0.06   0.06  -0.14     0.00   0.00   0.00
   5   8     0.00   0.00   0.00     0.00   0.00   0.00     0.06  -0.02   0.00
   6   1     0.00   0.00   0.00    -0.02   0.00   0.00    -0.95   0.32   0.00

 -------------------
 - Thermochemistry -
 -------------------
 Temperature   298.150 Kelvin.  Pressure   1.00000 Atm.
 Atom  1 has atomic number  6 and mass  12.00000
 Atom  2 has atomic number  1 and mass   1.00783
 Atom  3 has atomic number  1 and mass   1.00783
 Atom  4 has atomic number  1 and mass   1.00783
 Atom  5 has atomic number  8 and mass  15.99491
 Atom  6 has atomic number  1 and mass   1.00783
 Molecular mass:    32.02621 amu.
 Principal axes and moments of inertia in atomic units:
                           1         2         3
     EIGENVALUES --    14.13267  72.83243  75.51457
           X           -0.05429   0.99853   0.00000
           Y            0.99853   0.05429   0.00000
           Z            0.00000   0.00000   1.00000
 This molecule is an asymmetric top.
 Rotational symmetry number  1.
 Rotational temperatures (Kelvin)      6.12862     1.18922     1.14698
 Rotational constants (GHZ):         127.69992    24.77936    23.89924
 Zero-point vibrational energy     134950.7 (Joules/Mol)
                                   32.25400 (Kcal/Mol)
 Warning -- explicit consideration of   1 degrees of freedom as
           vibrations may cause significant error
 Vibrational temperatures:    482.11  1527.82  1575.20  1696.22  1992.99
          (Kelvin)           2157.63  2170.36  2196.37  4300.29  4365.91
                             4492.38  5504.35
 
 Zero-point correction=                           0.051400 (Hartree/Particle)
 Thermal correction to Energy=                    0.054705
 Thermal correction to Enthalpy=                  0.055649
 Thermal correction to Gibbs Free Energy=         0.028669
 Sum of electronic and zero-point Energies=           -115.672566
 Sum of electronic and thermal Energies=              -115.669260
 Sum of electronic and thermal Enthalpies=            -115.668316
 Sum of electronic and thermal Free Energies=         -115.695297
 
                     E (Thermal)             CV                S
                      KCal/Mol        Cal/Mol-Kelvin    Cal/Mol-Kelvin
 Total                   34.328              8.713             56.786
 Electronic               0.000              0.000              0.000
 Translational            0.889              2.981             36.324
 Rotational               0.889              2.981             18.992
 Vibrational             32.551              2.751              1.470
 Vibration  1             0.716              1.605              1.235
                       Q            Log10(Q)             Ln(Q)
 Total Bot       0.650621D-13        -13.186672        -30.363435
 Total V=0       0.285525D+11         10.455645         24.075012
 Vib (Bot)       0.289386D-23        -23.538522        -54.199450
 Vib (Bot)  1    0.555853D+00         -0.255040         -0.587252
 Vib (V=0)       0.126997D+01          0.103795          0.238997
 Vib (V=0)  1    0.124764D+01          0.096091          0.221257
 Electronic      0.100000D+01          0.000000          0.000000
 Translational   0.712383D+07          6.852714         15.778956
 Rotational      0.315599D+04          3.499136          8.057059
 ***** Axes restored to original set *****
 -------------------------------------------------------------------
 Center     Atomic                   Forces (Hartrees/Bohr)
 Number     Number              X              Y              Z
 -------------------------------------------------------------------
    1          6           0.000003943   -0.000004218    0.000009834
    2          1          -0.000005534   -0.000001200    0.000002798
    3          1           0.000000905    0.000001201   -0.000001354
    4          1           0.000000905    0.000000154   -0.000001803
    5          8          -0.000001286    0.000002272   -0.000005296
    6          1           0.000001067    0.000001792   -0.000004178
 -------------------------------------------------------------------
 Cartesian Forces:  Max     0.000009834 RMS     0.000003612

 GradGradGradGradGradGradGradGradGradGradGradGradGradGradGradGradGradGrad
 Berny optimization.
 Internal  Forces:  Max     0.000002879 RMS     0.000001836
 Search for a local minimum.
 Step number   1 out of a maximum of   2
 All quantities printed in internal units (Hartrees-Bohrs-Radians)
 Second derivative matrix not updated -- analytic derivatives used.
 The second derivative matrix:
                          R1        R2        R3        R4        R5
           R1           0.34354
           R2           0.00330   0.32258
           R3           0.00330   0.00452   0.32258
           R4           0.01226   0.01822   0.01822   0.35952
           R5          -0.00186  -0.00014  -0.00014  -0.00366   0.52566
           A1           0.00628   0.00797  -0.00573  -0.02793  -0.00048
           A2           0.00628  -0.00573   0.00797  -0.02793  -0.00048
           A3           0.00236  -0.00434  -0.00434   0.02951   0.00787
           A4          -0.00479   0.00842   0.00842  -0.02845   0.00123
           A5          -0.00446  -0.00188  -0.00433   0.02539  -0.00392
           A6          -0.00446  -0.00433  -0.00188   0.02539  -0.00392
           A7           0.00309   0.00005   0.00005   0.05213   0.01621
           D1           0.00000  -0.00554   0.00554   0.00000   0.00000
           D2           0.00666   0.00036  -0.00678  -0.00074   0.00222
           D3          -0.00666   0.00678  -0.00036   0.00074  -0.00222
                          A1        A2        A3        A4        A5
           A1           0.07273
           A2           0.00401   0.07273
           A3          -0.03933  -0.03933   0.13864
           A4           0.00479   0.00479  -0.00048   0.07517
           A5          -0.03589  -0.00111  -0.03007  -0.04126   0.13730
           A6          -0.00111  -0.03589  -0.03007  -0.04126  -0.03423
           A7          -0.00541  -0.00541   0.02099   0.00159  -0.00586
           D1          -0.02121   0.02121   0.00000   0.00000  -0.01903
           D2           0.02215   0.00019   0.02367  -0.01811  -0.00367
           D3          -0.00019  -0.02215  -0.02367   0.01811   0.02131
                          A6        A7        D1        D2        D3
           A6           0.13730
           A7          -0.00586   0.18509
           D1           0.01903   0.00000   0.02567
           D2          -0.02131   0.00349  -0.01128   0.02902
           D3           0.00367  -0.00349  -0.01128  -0.01452   0.02902
     Eigenvalues ---    0.00316   0.09059   0.09074   0.13279   0.15817
     Eigenvalues ---    0.18517   0.20203   0.31941   0.32347   0.34251
     Eigenvalues ---    0.40168   0.526831000.000001000.000001000.00000
 Angle between quadratic step and forces=  20.84 degrees.
 Linear search not attempted -- first point.
 Iteration  1 RMS(Cart)=  0.00001456 RMS(Int)=  0.00000000
 Iteration  2 RMS(Cart)=  0.00000000 RMS(Int)=  0.00000000
 Variable       Old X    -DE/DX   Delta X   Delta X   Delta X     New X
                                 (Linear)    (Quad)   (Total)
    R1        2.06555   0.00000   0.00000  -0.00001  -0.00001   2.06554
    R2        2.07974   0.00000   0.00000   0.00001   0.00001   2.07974
    R3        2.07974   0.00000   0.00000   0.00001   0.00001   2.07974
    R4        2.67988   0.00000   0.00000   0.00000   0.00000   2.67987
    R5        1.82393   0.00000   0.00000   0.00000   0.00000   1.82393
    A1        1.88335   0.00000   0.00000   0.00003   0.00003   1.88338
    A2        1.88335   0.00000   0.00000   0.00003   0.00003   1.88338
    A3        1.86572   0.00000   0.00000   0.00000   0.00000   1.86572
    A4        1.88956   0.00000   0.00000  -0.00004  -0.00004   1.88952
    A5        1.96908   0.00000   0.00000  -0.00001  -0.00001   1.96907
    A6        1.96908   0.00000   0.00000  -0.00001  -0.00001   1.96907
    A7        1.88008   0.00000   0.00000   0.00000   0.00000   1.88008
    D1        3.14159   0.00000   0.00000   0.00000   0.00000   3.14159
    D2       -1.07414   0.00000   0.00000   0.00003   0.00003  -1.07411
    D3        1.07414   0.00000   0.00000  -0.00003  -0.00003   1.07411
         Item               Value     Threshold  Converged?
 Maximum Force            0.000003     0.000450     YES
 RMS     Force            0.000002     0.000300     YES
 Maximum Displacement     0.000028     0.001800     YES
 RMS     Displacement     0.000015     0.001200     YES
 Predicted change in Energy=-2.276338D-10
 Optimization completed.
    -- Stationary point found.
                           ----------------------------
                           !   Optimized Parameters   !
                           ! (Angstroms and Degrees)  !
 --------------------------                            --------------------------
 ! Name  Definition              Value          Derivative Info.                !
 --------------------------------------------------------------------------------
 ! R1    R(1,2)                  1.093          -DE/DX =    0.0                 !
 ! R2    R(1,3)                  1.1005         -DE/DX =    0.0                 !
 ! R3    R(1,4)                  1.1005         -DE/DX =    0.0                 !
 ! R4    R(1,5)                  1.4181         -DE/DX =    0.0                 !
 ! R5    R(5,6)                  0.9652         -DE/DX =    0.0                 !
 ! A1    A(2,1,3)              107.9083         -DE/DX =    0.0                 !
 ! A2    A(2,1,4)              107.9083         -DE/DX =    0.0                 !
 ! A3    A(2,1,5)              106.8982         -DE/DX =    0.0                 !
 ! A4    A(3,1,4)              108.2637         -DE/DX =    0.0                 !
 ! A5    A(3,1,5)              112.8199         -DE/DX =    0.0                 !
 ! A6    A(4,1,5)              112.8199         -DE/DX =    0.0                 !
 ! A7    A(1,5,6)              107.7206         -DE/DX =    0.0                 !
 ! D1    D(2,1,5,6)            180.0            -DE/DX =    0.0                 !
 ! D2    D(3,1,5,6)            -61.5439         -DE/DX =    0.0                 !
 ! D3    D(4,1,5,6)             61.5439         -DE/DX =    0.0                 !
 --------------------------------------------------------------------------------
 GradGradGradGradGradGradGradGradGradGradGradGradGradGradGradGradGradGrad

 1|1|UNPC-UNK|Freq|RB3LYP|6-31G(d,p)|C1H4O1|PCUSER|02-Oct-2017|0||#N GE
 OM=ALLCHECK GUESS=READ SCRF=CHECK GENCHK RB3LYP/6-31G(D,P) FREQ||ch3oh
 ||0,1|C,0.6252312798,0.0857174348,-0.1998129746|H,1.3295320858,-0.2438
 234089,0.5683683919|H,0.8269352218,-0.4924325541,-1.1142885224|H,0.826
 9352218,1.1467970574,-0.4110781442|O,-0.6780381362,-0.134698826,0.3139
 918169|H,-1.3104851192,0.1527449051,-0.3560584132||Version=IA32W-G03Re
 vC.02|State=1-A'|HF=-115.7239657|RMSD=1.469e-009|RMSF=3.612e-006|Dipol
 e=0.0991365,0.2550959,-0.5946452|DipoleDeriv=0.7695083,0.0800468,-0.18
 65943,0.0722239,0.410492,0.0195611,-0.1683587,0.0195611,0.3732852,-0.0
 606294,0.0299681,-0.0698575,0.0406797,0.0426395,0.0487302,-0.0948269,0
 .0487302,-0.0500492,-0.0513233,0.0106597,0.0485232,0.0175142,-0.046791
 1,-0.1184887,0.0960081,-0.1132824,-0.1529786,-0.0513233,-0.0425071,0.0
 257153,-0.0816395,-0.2182876,0.0498174,0.0534723,0.0446112,0.0185179,-
 0.8264202,-0.1008744,0.2351449,-0.0838557,-0.5146992,-0.0836393,0.1954
 73,-0.0836393,-0.3556109,0.2201878,0.022707,-0.0529315,0.0350774,0.326
 6466,0.0840192,-0.0817677,0.0840192,0.1668356|Polar=17.9859889,-0.1743
 6,14.5242632,0.4064446,-0.534237,15.5404234|PG=CS [SG(C1H2O1),X(H2)]|N
 Imag=0||0.51039525,-0.02053618,0.56004445,0.04787118,-0.00781630,0.574
 91165,-0.14589030,0.04874609,-0.11363035,0.17670859,0.05358966,-0.0781
 9152,0.06093328,-0.05461287,0.07578985,-0.12492101,0.06093328,-0.19409
 133,0.12730620,-0.06553306,0.20043879,-0.05582134,0.01680459,0.0213956
 8,0.00504598,-0.01181920,-0.01568853,0.06585015,0.01686683,-0.12709131
 ,-0.11041681,-0.00175386,0.00649043,0.00933183,-0.01933950,0.12804115,
 0.02445029,-0.10882252,-0.21839038,0.00212073,-0.01403318,-0.01805080,
 -0.03868609,0.12083745,0.23758212,-0.05582134,-0.02708461,0.00256773,0
 .00504598,0.01951342,-0.00224720,0.00351797,0.00274373,-0.00233350,0.0
 6585015,-0.02934094,-0.28451223,0.04089088,-0.00032806,-0.00874337,0.0
 0045476,-0.00019992,-0.01695024,0.00320529,0.04136057,0.30624419,0.004
 62770,0.03929658,-0.06096946,0.00273238,0.02381977,-0.00281700,-0.0035
 9629,-0.02724247,0.00591005,-0.01264647,-0.04864053,0.05937909,-0.2214
 5398,-0.03110070,0.07249778,-0.03474031,-0.00465107,0.01084194,-0.0206
 2041,0.00053831,0.01467978,-0.02062041,-0.01100829,0.00972642,0.530162
 04,-0.01160554,-0.07069785,0.01991755,0.00906108,0.00404804,-0.0050571
 7,0.01435074,0.00958905,-0.00235181,-0.03546700,0.00317433,0.01395415,
 -0.05693792,0.10726862,0.02705328,0.01991755,-0.10858257,-0.02112197,-
 0.00505717,0.01366717,0.03529731,0.00785351,-0.00785994,0.01392608,0.0
 0374883,-0.00144523,0.13272604,-0.14312548,0.37950436,-0.03140828,0.01
 317081,-0.03070201,-0.00616994,-0.00201994,0.00470861,0.00202766,0.000
 94449,-0.00023120,0.00202766,-0.00048336,-0.00084373,-0.23272693,0.080
 59864,-0.18788073,0.26624984,-0.00897382,0.00044847,-0.00350859,-0.001
 11237,0.00060657,-0.00012965,0.00020329,-0.00007908,0.00116476,-0.0010
 6612,0.00078732,-0.00118750,0.10315966,-0.05338220,0.11666276,-0.09221
 064,0.05161892,0.02091857,-0.00350859,0.00712208,0.00259301,-0.0001296
 5,0.00085317,0.00127794,-0.00036351,0.00080896,0.00073337,0.00034077,-
 0.00005745,-0.24047195,0.11666276,-0.27528380,0.21494906,-0.11300177,0
 .26655704||-0.00000394,0.00000422,-0.00000983,0.00000553,0.00000120,-0
 .00000280,-0.00000090,-0.00000120,0.00000135,-0.00000090,-0.00000015,0
 .00000180,0.00000129,-0.00000227,0.00000530,-0.00000107,-0.00000179,0.
 00000418|||@


 TIME IS NATURE'S WAY OF MAKING SURE EVERYTHING
 DOESN'T HAPPEN AT ONCE.
                     - WOODY ALLEN
 Job cpu time:  0 days  0 hours  0 minutes 23.0 seconds.
 File lengths (MBytes):  RWF=     11 Int=      0 D2E=      0 Chk=      4 Scr=      1
 Normal termination of Gaussian 03 at Mon Oct 02 11:27:28 2017.
