 Entering Link 1 = C:\G03W\l1.exe PID=       988.
  
 Copyright (c) 1988,1990,1992,1993,1995,1998,2003,2004, Gaussian, Inc.
                  All Rights Reserved.
  
 This is the Gaussian(R) 03 program.  It is based on the
 the Gaussian(R) 98 system (copyright 1998, Gaussian, Inc.),
 the Gaussian(R) 94 system (copyright 1995, Gaussian, Inc.),
 the Gaussian 92(TM) system (copyright 1992, Gaussian, Inc.),
 the Gaussian 90(TM) system (copyright 1990, Gaussian, Inc.),
 the Gaussian 88(TM) system (copyright 1988, Gaussian, Inc.),
 the Gaussian 86(TM) system (copyright 1986, Carnegie Mellon
 University), and the Gaussian 82(TM) system (copyright 1983,
 Carnegie Mellon University). Gaussian is a federally registered
 trademark of Gaussian, Inc.
  
 This software contains proprietary and confidential information,
 including trade secrets, belonging to Gaussian, Inc.
  
 This software is provided under written license and may be
 used, copied, transmitted, or stored only in accord with that
 written license.
  
 The following legend is applicable only to US Government
 contracts under FAR:
  
                    RESTRICTED RIGHTS LEGEND
  
 Use, reproduction and disclosure by the US Government is
 subject to restrictions as set forth in subparagraphs (a)
 and (c) of the Commercial Computer Software - Restricted
 Rights clause in FAR 52.227-19.
  
 Gaussian, Inc.
 340 Quinnipiac St., Bldg. 40, Wallingford CT 06492
  
  
 ---------------------------------------------------------------
 Warning -- This program may not be used in any manner that
 competes with the business of Gaussian, Inc. or will provide
 assistance to any competitor of Gaussian, Inc.  The licensee
 of this program is prohibited from giving any competitor of
 Gaussian, Inc. access to this program.  By using this program,
 the user acknowledges that Gaussian, Inc. is engaged in the
 business of creating and licensing software in the field of
 computational chemistry and represents and warrants to the
 licensee that it is not a competitor of Gaussian, Inc. and that
 it will not use this program in any manner prohibited above.
 ---------------------------------------------------------------
  

 Cite this work as:
 Gaussian 03, Revision C.02,
 M. J. Frisch, G. W. Trucks, H. B. Schlegel, G. E. Scuseria, 
 M. A. Robb, J. R. Cheeseman, J. A. Montgomery, Jr., T. Vreven, 
 K. N. Kudin, J. C. Burant, J. M. Millam, S. S. Iyengar, J. Tomasi, 
 V. Barone, B. Mennucci, M. Cossi, G. Scalmani, N. Rega, 
 G. A. Petersson, H. Nakatsuji, M. Hada, M. Ehara, K. Toyota, 
 R. Fukuda, J. Hasegawa, M. Ishida, T. Nakajima, Y. Honda, O. Kitao, 
 H. Nakai, M. Klene, X. Li, J. E. Knox, H. P. Hratchian, J. B. Cross, 
 C. Adamo, J. Jaramillo, R. Gomperts, R. E. Stratmann, O. Yazyev, 
 A. J. Austin, R. Cammi, C. Pomelli, J. W. Ochterski, P. Y. Ayala, 
 K. Morokuma, G. A. Voth, P. Salvador, J. J. Dannenberg, 
 V. G. Zakrzewski, S. Dapprich, A. D. Daniels, M. C. Strain, 
 O. Farkas, D. K. Malick, A. D. Rabuck, K. Raghavachari, 
 J. B. Foresman, J. V. Ortiz, Q. Cui, A. G. Baboul, S. Clifford, 
 J. Cioslowski, B. B. Stefanov, G. Liu, A. Liashenko, P. Piskorz, 
 I. Komaromi, R. L. Martin, D. J. Fox, T. Keith, M. A. Al-Laham, 
 C. Y. Peng, A. Nanayakkara, M. Challacombe, P. M. W. Gill, 
 B. Johnson, W. Chen, M. W. Wong, C. Gonzalez, and J. A. Pople, 
 Gaussian, Inc., Wallingford CT, 2004.
 
 ******************************************
 Gaussian 03:  IA32W-G03RevC.02 12-Jun-2004
                02-Oct-2017 
 ******************************************
 %mem=300mb
 %chk=ch3oh
 ----------------------------------
 #B3LYP 6-31G** SCF=direct OPT FREQ
 ----------------------------------
 1/14=-1,18=20,26=3,38=1/1,3;
 2/9=110,17=6,18=5,40=1/2;
 3/5=1,6=6,7=101,11=2,16=1,25=1,30=1,74=-5/1,2,3;
 4//1;
 5/5=2,38=5/2;
 6/7=2,8=2,9=2,10=2,28=1/1;
 7//1,2,3,16;
 1/14=-1,18=20/3(1);
 99//99;
 2/9=110/2;
 3/5=1,6=6,7=101,11=2,16=1,25=1,30=1,74=-5/1,2,3;
 4/5=5,16=3/1;
 5/5=2,38=5/2;
 7//1,2,3,16;
 1/14=-1,18=20/3(-5);
 2/9=110/2;
 6/7=2,8=2,9=2,10=2,19=2,28=1/1;
 99/9=1/99;
 -----
 ch3oh
 -----
 Symbolic Z-matrix:
 Charge =  0 Multiplicity = 1
 6                    -1.09402   2.99938   0.15969 
 1                    -1.99308   3.52764   0.44082 
 1                    -0.43911   2.92278   1.01504 
 1                    -0.59215   3.53771  -0.63072 
 8                    -1.43758   1.67927  -0.30169 
 1                    -0.63505   1.18598  -0.48661 
 6                     0.4513   -1.74503  -0.30333 
 1                     1.39994  -1.74685  -0.81954 
 1                     0.46879  -2.4832    0.48484 
 1                    -0.33867  -1.98184  -1.00065 
 8                     0.21629  -0.44252   0.26399 
 1                    -0.61098  -0.45013   0.75099 
 6                     2.45749   1.42539  -1.52576 
 1                     1.96848   1.82065  -0.64767 
 1                     3.21181   0.71228  -1.22766 
 1                     2.92157   2.23223  -2.07351 
 8                     1.48491   0.7733   -2.3639 
 1                     1.28037   0.15174  -1.66146 
 

 GradGradGradGradGradGradGradGradGradGradGradGradGradGradGradGradGradGrad
 Berny optimization.
 Initialization pass.
                           ----------------------------
                           !    Initial Parameters    !
                           ! (Angstroms and Degrees)  !
 --------------------------                            --------------------------
 ! Name  Definition              Value          Derivative Info.                !
 --------------------------------------------------------------------------------
 ! R1    R(1,2)                  1.08           estimate D2E/DX2                !
 ! R2    R(1,3)                  1.08           estimate D2E/DX2                !
 ! R3    R(1,4)                  1.08           estimate D2E/DX2                !
 ! R4    R(1,5)                  1.44           estimate D2E/DX2                !
 ! R5    R(5,6)                  0.96           estimate D2E/DX2                !
 ! R6    R(5,12)                 2.5151         estimate D2E/DX2                !
 ! R7    R(6,11)                 1.985          estimate D2E/DX2                !
 ! R8    R(7,8)                  1.08           estimate D2E/DX2                !
 ! R9    R(7,9)                  1.08           estimate D2E/DX2                !
 ! R10   R(7,10)                 1.08           estimate D2E/DX2                !
 ! R11   R(7,11)                 1.44           estimate D2E/DX2                !
 ! R12   R(7,18)                 2.4758         estimate D2E/DX2                !
 ! R13   R(11,12)                0.96           estimate D2E/DX2                !
 ! R14   R(11,18)                2.2788         estimate D2E/DX2                !
 ! R15   R(13,14)                1.08           estimate D2E/DX2                !
 ! R16   R(13,15)                1.08           estimate D2E/DX2                !
 ! R17   R(13,16)                1.08           estimate D2E/DX2                !
 ! R18   R(13,17)                1.44           estimate D2E/DX2                !
 ! R19   R(17,18)                0.96           estimate D2E/DX2                !
 ! A1    A(2,1,3)              109.4712         estimate D2E/DX2                !
 ! A2    A(2,1,4)              109.484          estimate D2E/DX2                !
 ! A3    A(2,1,5)              109.4625         estimate D2E/DX2                !
 ! A4    A(3,1,4)              109.4625         estimate D2E/DX2                !
 ! A5    A(3,1,5)              109.4759         estimate D2E/DX2                !
 ! A6    A(4,1,5)              109.4712         estimate D2E/DX2                !
 ! A7    A(1,5,6)              109.4712         estimate D2E/DX2                !
 ! A8    A(1,5,12)             124.3078         estimate D2E/DX2                !
 ! A9    A(6,5,12)              51.0107         estimate D2E/DX2                !
 ! A10   A(5,6,11)             135.0131         estimate D2E/DX2                !
 ! A11   A(8,7,9)              109.4777         estimate D2E/DX2                !
 ! A12   A(8,7,10)             109.4815         estimate D2E/DX2                !
 ! A13   A(8,7,11)             109.4621         estimate D2E/DX2                !
 ! A14   A(8,7,18)              56.2859         estimate D2E/DX2                !
 ! A15   A(9,7,10)             109.4621         estimate D2E/DX2                !
 ! A16   A(9,7,11)             109.4728         estimate D2E/DX2                !
 ! A17   A(9,7,18)             156.7136         estimate D2E/DX2                !
 ! A18   A(10,7,11)            109.4712         estimate D2E/DX2                !
 ! A19   A(10,7,18)             93.3674         estimate D2E/DX2                !
 ! A20   A(6,11,7)             131.5365         estimate D2E/DX2                !
 ! A21   A(6,11,12)             80.1389         estimate D2E/DX2                !
 ! A22   A(6,11,18)             70.538          estimate D2E/DX2                !
 ! A23   A(7,11,12)            109.4712         estimate D2E/DX2                !
 ! A24   A(12,11,18)           146.4189         estimate D2E/DX2                !
 ! A25   A(5,12,11)             93.6798         estimate D2E/DX2                !
 ! A26   A(14,13,15)           109.4803         estimate D2E/DX2                !
 ! A27   A(14,13,16)           109.482          estimate D2E/DX2                !
 ! A28   A(14,13,17)           109.4601         estimate D2E/DX2                !
 ! A29   A(15,13,16)           109.4601         estimate D2E/DX2                !
 ! A30   A(15,13,17)           109.4735         estimate D2E/DX2                !
 ! A31   A(16,13,17)           109.4712         estimate D2E/DX2                !
 ! A32   A(13,17,18)            90.6427         estimate D2E/DX2                !
 ! A33   A(7,18,17)            165.6431         estimate D2E/DX2                !
 ! A34   A(11,18,17)           152.4486         estimate D2E/DX2                !
 ! D1    D(2,1,5,6)           -175.6146         estimate D2E/DX2                !
 ! D2    D(2,1,5,12)          -120.1316         estimate D2E/DX2                !
 ! D3    D(3,1,5,6)            -55.6171         estimate D2E/DX2                !
 ! D4    D(3,1,5,12)            -0.134          estimate D2E/DX2                !
 ! D5    D(4,1,5,6)             64.3751         estimate D2E/DX2                !
 ! D6    D(4,1,5,12)           119.8582         estimate D2E/DX2                !
 ! D7    D(1,5,6,11)           116.0656         estimate D2E/DX2                !
 ! D8    D(12,5,6,11)           -2.8129         estimate D2E/DX2                !
 ! D9    D(1,5,12,11)          -83.9771         estimate D2E/DX2                !
 ! D10   D(6,5,12,11)            4.1222         estimate D2E/DX2                !
 ! D11   D(5,6,11,7)           113.1596         estimate D2E/DX2                !
 ! D12   D(5,6,11,12)            5.8217         estimate D2E/DX2                !
 ! D13   D(5,6,11,18)          169.2103         estimate D2E/DX2                !
 ! D14   D(8,7,11,6)            88.0863         estimate D2E/DX2                !
 ! D15   D(8,7,11,12)         -177.8694         estimate D2E/DX2                !
 ! D16   D(9,7,11,6)          -151.9104         estimate D2E/DX2                !
 ! D17   D(9,7,11,12)          -57.8661         estimate D2E/DX2                !
 ! D18   D(10,7,11,6)          -31.9206         estimate D2E/DX2                !
 ! D19   D(10,7,11,12)          62.1236         estimate D2E/DX2                !
 ! D20   D(8,7,18,17)           90.5328         estimate D2E/DX2                !
 ! D21   D(9,7,18,17)          148.0928         estimate D2E/DX2                !
 ! D22   D(10,7,18,17)         -20.7125         estimate D2E/DX2                !
 ! D23   D(6,11,12,5)           -1.5716         estimate D2E/DX2                !
 ! D24   D(7,11,12,5)         -132.2952         estimate D2E/DX2                !
 ! D25   D(18,11,12,5)         -30.7363         estimate D2E/DX2                !
 ! D26   D(6,11,18,17)          15.0836         estimate D2E/DX2                !
 ! D27   D(12,11,18,17)         45.6952         estimate D2E/DX2                !
 ! D28   D(14,13,17,18)        -60.925          estimate D2E/DX2                !
 ! D29   D(15,13,17,18)         59.0808         estimate D2E/DX2                !
 ! D30   D(16,13,17,18)        179.0686         estimate D2E/DX2                !
 ! D31   D(13,17,18,7)        -168.4816         estimate D2E/DX2                !
 ! D32   D(13,17,18,11)         81.5125         estimate D2E/DX2                !
 --------------------------------------------------------------------------------
 Trust Radius=3.00D-01 FncErr=1.00D-07 GrdErr=1.00D-06
 Number of steps in this run=  95 maximum allowed number of steps= 108.
 GradGradGradGradGradGradGradGradGradGradGradGradGradGradGradGradGradGrad

                          Input orientation:                          
 ---------------------------------------------------------------------
 Center     Atomic     Atomic              Coordinates (Angstroms)
 Number     Number      Type              X           Y           Z
 ---------------------------------------------------------------------
    1          6             0       -1.094020    2.999383    0.159685
    2          1             0       -1.993081    3.527637    0.440819
    3          1             0       -0.439111    2.922781    1.015037
    4          1             0       -0.592153    3.537709   -0.630717
    5          8             0       -1.437585    1.679272   -0.301692
    6          1             0       -0.635049    1.185975   -0.486610
    7          6             0        0.451297   -1.745032   -0.303326
    8          1             0        1.399938   -1.746852   -0.819541
    9          1             0        0.468791   -2.483197    0.484840
   10          1             0       -0.338673   -1.981844   -1.000654
   11          8             0        0.216286   -0.442524    0.263985
   12          1             0       -0.610977   -0.450126    0.750995
   13          6             0        2.457487    1.425395   -1.525761
   14          1             0        1.968483    1.820653   -0.647669
   15          1             0        3.211808    0.712276   -1.227663
   16          1             0        2.921573    2.232235   -2.073514
   17          8             0        1.484915    0.773301   -2.363899
   18          1             0        1.280374    0.151738   -1.661459
 ---------------------------------------------------------------------
                    Distance matrix (angstroms):
                    1          2          3          4          5
     1  C    0.000000
     2  H    1.080000   0.000000
     3  H    1.080000   1.763633   0.000000
     4  H    1.080000   1.763771   1.763538   0.000000
     5  O    1.440000   2.067934   2.068101   2.068043   0.000000
     6  H    1.979091   2.861426   2.304307   2.356535   0.960000
     7  C    5.011173   5.859162   4.931470   5.394750   3.910720
     8  H    5.450271   6.396977   5.343524   5.650722   4.478618
     9  H    5.710235   6.495605   5.507268   6.214610   4.645325
    10  H    5.170064   5.930370   5.303626   5.537741   3.885862
    11  O    3.684359   4.546950   3.509830   4.158884   2.749054
    12  H    3.533000   4.222442   3.387589   4.220463   2.515107
    13  C    4.234545   5.300417   4.133776   3.816187   4.090768
    14  H    3.379371   4.448887   3.126626   3.083087   3.426512
    15  H    5.069097   6.148249   4.821333   4.775933   4.838321
    16  H    4.658399   5.670429   4.616298   4.016491   4.737866
    17  O    4.239673   5.248740   4.442900   3.867827   3.689781
    18  H    4.130786   5.150901   4.218880   4.004197   3.401415
                    6          7          8          9         10
     6  H    0.000000
     7  C    3.131221   0.000000
     8  H    3.585176   1.080000   0.000000
     9  H    3.952847   1.080000   1.763703   0.000000
    10  H    3.222912   1.080000   1.763744   1.763533   0.000000
    11  O    1.984987   1.440000   2.067929   2.068063   2.068043
    12  H    2.051602   1.979091   2.862142   2.317351   2.342773
    13  C    3.271228   3.945979   3.417646   4.824367   4.438866
    14  H    2.684611   3.890313   3.616611   4.696252   4.461676
    15  H    3.946119   3.809617   3.081679   4.546191   4.462705
    16  H    4.032677   5.005445   4.440828   5.898865   5.434951
    17  O    2.861601   3.414136   2.956929   4.444390   3.574176
    18  H    2.473613   2.475808   2.080328   3.494016   2.758650
                   11         12         13         14         15
    11  O    0.000000
    12  H    0.960000   0.000000
    13  C    3.422761   4.256368   0.000000
    14  H    3.003877   3.710298   1.080000   0.000000
    15  H    3.540018   4.458693   1.080000   1.763732   0.000000
    16  H    4.465066   5.258499   1.080000   1.763750   1.763512
    17  O    3.161238   3.948683   1.440000   2.067905   2.068071
    18  H    2.278764   3.124000   1.739601   2.070397   2.057381
                   16         17         18
    16  H    0.000000
    17  O    2.068043   0.000000
    18  H    2.681752   0.960000   0.000000
 Stoichiometry    C3H12O3
 Framework group  C1[X(C3H12O3)]
 Deg. of freedom    48
 Full point group                 C1      NOp   1
 Largest Abelian subgroup         C1      NOp   1
 Largest concise Abelian subgroup C1      NOp   1
                         Standard orientation:                         
 ---------------------------------------------------------------------
 Center     Atomic     Atomic              Coordinates (Angstroms)
 Number     Number      Type              X           Y           Z
 ---------------------------------------------------------------------
    1          6             0        2.766600    0.205520   -0.230802
    2          1             0        3.785777   -0.108341   -0.060010
    3          1             0        2.529999    0.105175   -1.279778
    4          1             0        2.652839    1.237506    0.066625
    5          8             0        1.874727   -0.618282    0.543480
    6          1             0        0.965987   -0.385186    0.339866
    7          6             0       -1.836007   -1.754743    0.061150
    8          1             0       -2.555029   -0.953480   -0.024790
    9          1             0       -2.190836   -2.616995   -0.483844
   10          1             0       -1.708520   -2.014211    1.101738
   11          8             0       -0.573993   -1.327538   -0.485123
   12          1             0        0.055794   -2.050627   -0.439188
   13          6             0       -1.027543    2.064943   -0.510807
   14          1             0       -0.203807    1.602436   -1.034207
   15          1             0       -1.944381    1.886683   -1.053054
   16          1             0       -0.854927    3.128406   -0.435649
   17          8             0       -1.133686    1.501358    0.810066
   18          1             0       -1.287578    0.630019    0.437659
 ---------------------------------------------------------------------
 Rotational constants (GHZ):      2.2820311      1.6533670      1.0752855
 Standard basis: 6-31G(d,p) (6D, 7F)
 There are   150 symmetry adapted basis functions of A   symmetry.
 Integral buffers will be    262144 words long.
 Raffenetti 2 integral format.
 Two-electron integral symmetry is turned on.
   150 basis functions,   252 primitive gaussians,   150 cartesian basis functions
    27 alpha electrons       27 beta electrons
       nuclear repulsion energy       259.6293336205 Hartrees.
 NAtoms=   18 NActive=   18 NUniq=   18 SFac= 1.00D+00 NAtFMM=   60 Big=F
 One-electron integrals computed using PRISM.
 NBasis=   150 RedAO= T  NBF=   150
 NBsUse=   150 1.00D-06 NBFU=   150
 Harris functional with IExCor=  402 diagonalized for initial guess.
 ExpMin= 1.61D-01 ExpMax= 5.48D+03 ExpMxC= 8.25D+02 IAcc=1 IRadAn=         1 AccDes= 1.00D-06
 HarFok:  IExCor= 402 AccDes= 1.00D-06 IRadAn=         1 IDoV=1
 ScaDFX=  1.000000  1.000000  1.000000  1.000000
 Initial guess orbital symmetries:
       Occupied  (A) (A) (A) (A) (A) (A) (A) (A) (A) (A) (A) (A)
                 (A) (A) (A) (A) (A) (A) (A) (A) (A) (A) (A) (A)
                 (A) (A) (A)
       Virtual   (A) (A) (A) (A) (A) (A) (A) (A) (A) (A) (A) (A)
                 (A) (A) (A) (A) (A) (A) (A) (A) (A) (A) (A) (A)
                 (A) (A) (A) (A) (A) (A) (A) (A) (A) (A) (A) (A)
                 (A) (A) (A) (A) (A) (A) (A) (A) (A) (A) (A) (A)
                 (A) (A) (A) (A) (A) (A) (A) (A) (A) (A) (A) (A)
                 (A) (A) (A) (A) (A) (A) (A) (A) (A) (A) (A) (A)
                 (A) (A) (A) (A) (A) (A) (A) (A) (A) (A) (A) (A)
                 (A) (A) (A) (A) (A) (A) (A) (A) (A) (A) (A) (A)
                 (A) (A) (A) (A) (A) (A) (A) (A) (A) (A) (A) (A)
                 (A) (A) (A) (A) (A) (A) (A) (A) (A) (A) (A) (A)
                 (A) (A) (A)
 The electronic state of the initial guess is 1-A.
 Requested convergence on RMS density matrix=1.00D-08 within 128 cycles.
 Requested convergence on MAX density matrix=1.00D-06.
 Requested convergence on             energy=1.00D-06.
 No special actions if energy rises.
 Integral accuracy reduced to 1.0D-05 until final iterations.
 Initial convergence to 1.0D-05 achieved.  Increase integral accuracy.
 SCF Done:  E(RB+HF-LYP) =  -347.173636234     A.U. after   12 cycles
             Convg  =    0.4080D-08             -V/T =  2.0082
             S**2   =   0.0000

 **********************************************************************

            Population analysis using the SCF density.

 **********************************************************************

 Orbital symmetries:
       Occupied  (A) (A) (A) (A) (A) (A) (A) (A) (A) (A) (A) (A)
                 (A) (A) (A) (A) (A) (A) (A) (A) (A) (A) (A) (A)
                 (A) (A) (A)
       Virtual   (A) (A) (A) (A) (A) (A) (A) (A) (A) (A) (A) (A)
                 (A) (A) (A) (A) (A) (A) (A) (A) (A) (A) (A) (A)
                 (A) (A) (A) (A) (A) (A) (A) (A) (A) (A) (A) (A)
                 (A) (A) (A) (A) (A) (A) (A) (A) (A) (A) (A) (A)
                 (A) (A) (A) (A) (A) (A) (A) (A) (A) (A) (A) (A)
                 (A) (A) (A) (A) (A) (A) (A) (A) (A) (A) (A) (A)
                 (A) (A) (A) (A) (A) (A) (A) (A) (A) (A) (A) (A)
                 (A) (A) (A) (A) (A) (A) (A) (A) (A) (A) (A) (A)
                 (A) (A) (A) (A) (A) (A) (A) (A) (A) (A) (A) (A)
                 (A) (A) (A) (A) (A) (A) (A) (A) (A) (A) (A) (A)
                 (A) (A) (A)
 The electronic state is 1-A.
 Alpha  occ. eigenvalues --  -19.17171 -19.13561 -19.11764 -10.24608 -10.21686
 Alpha  occ. eigenvalues --  -10.21117  -1.03809  -1.01172  -0.98562  -0.71071
 Alpha  occ. eigenvalues --   -0.67213  -0.67041  -0.53033  -0.49704  -0.48170
 Alpha  occ. eigenvalues --   -0.46114  -0.44978  -0.43753  -0.42592  -0.41211
 Alpha  occ. eigenvalues --   -0.40720  -0.36301  -0.34368  -0.31424  -0.29484
 Alpha  occ. eigenvalues --   -0.26107  -0.24887
 Alpha virt. eigenvalues --    0.04095   0.09556   0.09857   0.13527   0.14336
 Alpha virt. eigenvalues --    0.15018   0.16449   0.16875   0.17133   0.18075
 Alpha virt. eigenvalues --    0.18305   0.18967   0.20053   0.23065   0.27017
 Alpha virt. eigenvalues --    0.49948   0.51703   0.52631   0.53899   0.54624
 Alpha virt. eigenvalues --    0.57004   0.57241   0.60447   0.65378   0.75139
 Alpha virt. eigenvalues --    0.78495   0.81984   0.82208   0.82841   0.83660
 Alpha virt. eigenvalues --    0.84690   0.85543   0.87681   0.87950   0.89891
 Alpha virt. eigenvalues --    0.91142   0.93656   0.95652   0.97125   0.98574
 Alpha virt. eigenvalues --    1.00408   1.01674   1.04422   1.04844   1.09163
 Alpha virt. eigenvalues --    1.12767   1.25192   1.29983   1.33442   1.36931
 Alpha virt. eigenvalues --    1.37518   1.39829   1.40746   1.42725   1.52557
 Alpha virt. eigenvalues --    1.53454   1.57254   1.60022   1.64346   1.69263
 Alpha virt. eigenvalues --    1.79287   1.82677   1.83647   1.93380   1.94112
 Alpha virt. eigenvalues --    1.95562   1.96953   1.97675   1.98235   2.02331
 Alpha virt. eigenvalues --    2.03671   2.04227   2.04608   2.06967   2.07289
 Alpha virt. eigenvalues --    2.07498   2.08620   2.10627   2.32811   2.35566
 Alpha virt. eigenvalues --    2.37329   2.39982   2.41995   2.51800   2.53767
 Alpha virt. eigenvalues --    2.54562   2.56835   2.57366   2.58793   2.60447
 Alpha virt. eigenvalues --    2.64255   2.65223   2.68064   2.69808   2.73758
 Alpha virt. eigenvalues --    2.77988   2.80578   2.81277   2.82877   2.85755
 Alpha virt. eigenvalues --    2.89010   2.89384   2.96230   2.99876   3.00802
 Alpha virt. eigenvalues --    3.19907   3.22074   3.23741   3.37404   3.42461
 Alpha virt. eigenvalues --    3.43211   3.43625   3.44772   3.45418   3.52254
 Alpha virt. eigenvalues --    3.63812   3.65271   3.80911   3.86747   4.00439
 Alpha virt. eigenvalues --    4.40472   4.42892   4.43199
          Condensed to atoms (all electrons):
              1          2          3          4          5          6
     1  C    4.687998   0.395437   0.376973   0.383434   0.255590  -0.027914
     2  H    0.395437   0.597426  -0.039711  -0.038909  -0.033173   0.005208
     3  H    0.376973  -0.039711   0.664052  -0.048348  -0.038843  -0.003058
     4  H    0.383434  -0.038909  -0.048348   0.644914  -0.037836  -0.006267
     5  O    0.255590  -0.033173  -0.038843  -0.037836   8.167850   0.265474
     6  H   -0.027914   0.005208  -0.003058  -0.006267   0.265474   0.418548
     7  C    0.000007   0.000001  -0.000029   0.000002   0.000416  -0.001256
     8  H    0.000002   0.000000   0.000001  -0.000001   0.000015  -0.000508
     9  H    0.000000   0.000000   0.000001   0.000000  -0.000028   0.000304
    10  H   -0.000007   0.000000   0.000001   0.000001   0.000141  -0.000363
    11  O    0.000248  -0.000019   0.000502  -0.000028  -0.013615   0.034167
    12  H   -0.000243  -0.000039  -0.000506   0.000173   0.015351  -0.009715
    13  C   -0.000176   0.000006  -0.000081   0.000165  -0.000152  -0.000216
    14  H    0.001244   0.000002   0.000631  -0.000153   0.000673  -0.002545
    15  H   -0.000004   0.000000  -0.000003   0.000006  -0.000007   0.000287
    16  H   -0.000006   0.000000  -0.000004   0.000026  -0.000002  -0.000001
    17  O   -0.000216  -0.000001  -0.000019   0.000209  -0.000773   0.009163
    18  H    0.000019   0.000000   0.000019  -0.000058   0.000054   0.000928
              7          8          9         10         11         12
     1  C    0.000007   0.000002   0.000000  -0.000007   0.000248  -0.000243
     2  H    0.000001   0.000000   0.000000   0.000000  -0.000019  -0.000039
     3  H   -0.000029   0.000001   0.000001   0.000001   0.000502  -0.000506
     4  H    0.000002  -0.000001   0.000000   0.000001  -0.000028   0.000173
     5  O    0.000416   0.000015  -0.000028   0.000141  -0.013615   0.015351
     6  H   -0.001256  -0.000508   0.000304  -0.000363   0.034167  -0.009715
     7  C    4.729716   0.392930   0.386737   0.386470   0.224523  -0.021979
     8  H    0.392930   0.581800  -0.033135  -0.038479  -0.036481   0.005670
     9  H    0.386737  -0.033135   0.612622  -0.043171  -0.031655  -0.006013
    10  H    0.386470  -0.038479  -0.043171   0.609546  -0.037244  -0.003193
    11  O    0.224523  -0.036481  -0.031655  -0.037244   8.124892   0.280592
    12  H   -0.021979   0.005670  -0.006013  -0.003193   0.280592   0.412032
    13  C   -0.000424   0.000114  -0.000005   0.000022   0.000634   0.000030
    14  H   -0.000307   0.000114   0.000004   0.000020   0.002485  -0.000132
    15  H    0.000327  -0.000075  -0.000016   0.000003  -0.000176   0.000002
    16  H    0.000001  -0.000028   0.000000   0.000001   0.000034  -0.000001
    17  O   -0.000550   0.001154   0.000026   0.000011  -0.003222   0.000127
    18  H    0.000938   0.001093   0.000370  -0.000418   0.012412  -0.000704
             13         14         15         16         17         18
     1  C   -0.000176   0.001244  -0.000004  -0.000006  -0.000216   0.000019
     2  H    0.000006   0.000002   0.000000   0.000000  -0.000001   0.000000
     3  H   -0.000081   0.000631  -0.000003  -0.000004  -0.000019   0.000019
     4  H    0.000165  -0.000153   0.000006   0.000026   0.000209  -0.000058
     5  O   -0.000152   0.000673  -0.000007  -0.000002  -0.000773   0.000054
     6  H   -0.000216  -0.002545   0.000287  -0.000001   0.009163   0.000928
     7  C   -0.000424  -0.000307   0.000327   0.000001  -0.000550   0.000938
     8  H    0.000114   0.000114  -0.000075  -0.000028   0.001154   0.001093
     9  H   -0.000005   0.000004  -0.000016   0.000000   0.000026   0.000370
    10  H    0.000022   0.000020   0.000003   0.000001   0.000011  -0.000418
    11  O    0.000634   0.002485  -0.000176   0.000034  -0.003222   0.012412
    12  H    0.000030  -0.000132   0.000002  -0.000001   0.000127  -0.000704
    13  C    4.765248   0.376335   0.382925   0.393120   0.239627  -0.046859
    14  H    0.376335   0.653658  -0.051800  -0.036470  -0.040759  -0.006592
    15  H    0.382925  -0.051800   0.657384  -0.036384  -0.036767  -0.010380
    16  H    0.393120  -0.036470  -0.036384   0.585707  -0.031875   0.008606
    17  O    0.239627  -0.040759  -0.036767  -0.031875   8.117881   0.284688
    18  H   -0.046859  -0.006592  -0.010380   0.008606   0.284688   0.430929
 Mulliken atomic charges:
              1
     1  C   -0.072388
     2  H    0.113773
     3  H    0.088421
     4  H    0.102671
     5  O   -0.581135
     6  H    0.317764
     7  C   -0.097523
     8  H    0.125814
     9  H    0.113961
    10  H    0.126660
    11  O   -0.558049
    12  H    0.328548
    13  C   -0.110314
    14  H    0.103591
    15  H    0.094679
    16  H    0.117276
    17  O   -0.538704
    18  H    0.324957
 Sum of Mulliken charges=   0.00000
 Atomic charges with hydrogens summed into heavy atoms:
              1
     1  C    0.232477
     2  H    0.000000
     3  H    0.000000
     4  H    0.000000
     5  O   -0.263371
     6  H    0.000000
     7  C    0.268911
     8  H    0.000000
     9  H    0.000000
    10  H    0.000000
    11  O   -0.229501
    12  H    0.000000
    13  C    0.205231
    14  H    0.000000
    15  H    0.000000
    16  H    0.000000
    17  O   -0.213747
    18  H    0.000000
 Sum of Mulliken charges=   0.00000
 Electronic spatial extent (au):  <R**2>=  1133.0213
 Charge=     0.0000 electrons
 Dipole moment (field-independent basis, Debye):
    X=    -1.4030    Y=    -1.6345    Z=    -2.3168  Tot=     3.1635
 Quadrupole moment (field-independent basis, Debye-Ang):
   XX=   -36.2977   YY=   -34.5929   ZZ=   -42.9116
   XY=     5.3171   XZ=    -1.4372   YZ=    -2.6987
 Traceless Quadrupole moment (field-independent basis, Debye-Ang):
   XX=     1.6364   YY=     3.3412   ZZ=    -4.9776
   XY=     5.3171   XZ=    -1.4372   YZ=    -2.6987
 Octapole moment (field-independent basis, Debye-Ang**2):
  XXX=     0.7808  YYY=   -14.4072  ZZZ=     1.3342  XYY=    -4.2434
  XXY=    -2.5812  XXZ=    -6.5565  XZZ=    -0.1454  YZZ=    -3.6804
  YYZ=    -6.1627  XYZ=     6.7735
 Hexadecapole moment (field-independent basis, Debye-Ang**3):
 XXXX=  -719.9738 YYYY=  -484.8635 ZZZZ=  -112.3369 XXXY=    14.8937
 XXXZ=    -2.4182 YYYX=     3.5237 YYYZ=     3.7900 ZZZX=    -1.3314
 ZZZY=     1.7964 XXYY=  -220.9024 XXZZ=  -156.0998 YYZZ=  -113.1476
 XXYZ=     0.4970 YYXZ=     5.2291 ZZXY=     2.5586
 N-N= 2.596293336205D+02 E-N=-1.332635418630D+03  KE= 3.443411686563D+02
 ***** Axes restored to original set *****
 -------------------------------------------------------------------
 Center     Atomic                   Forces (Hartrees/Bohr)
 Number     Number              X              Y              Z
 -------------------------------------------------------------------
    1          6           0.002632923   -0.028516564   -0.010886254
    2          1          -0.008377506    0.001203946    0.001209466
    3          1           0.007262849    0.004970053    0.011181106
    4          1           0.005310056    0.010591947   -0.006150253
    5          8          -0.016520942    0.012384512    0.007082167
    6          1           0.008352616    0.000012907   -0.003558264
    7          6          -0.014213717    0.012591716    0.012410343
    8          1           0.007502944    0.002514227   -0.002432324
    9          1           0.002689575   -0.010266222    0.005300982
   10          1          -0.005611738   -0.006197552   -0.009110804
   11          8           0.018046283   -0.002176403   -0.007261528
   12          1          -0.006501580    0.000070619    0.000926353
   13          6          -0.003338735    0.007571332   -0.017435731
   14          1          -0.000786922    0.006779063    0.011003983
   15          1           0.012175527   -0.004049129    0.005080434
   16          1           0.004083873    0.006406796   -0.004307939
   17          8           0.012507299    0.003201177    0.018228119
   18          1          -0.025212804   -0.017092428   -0.011279855
 -------------------------------------------------------------------
 Cartesian Forces:  Max     0.028516564 RMS     0.010197347

 GradGradGradGradGradGradGradGradGradGradGradGradGradGradGradGradGradGrad
 Berny optimization.
 Internal  Forces:  Max     0.059139637 RMS     0.008153935
 Search for a local minimum.
 Step number   1 out of a maximum of  95
 All quantities printed in internal units (Hartrees-Bohrs-Radians)
 Second derivative matrix not updated -- first step.
     Eigenvalues ---    0.00397   0.00687   0.01163   0.01163   0.01532
     Eigenvalues ---    0.01558   0.01878   0.02507   0.02920   0.03084
     Eigenvalues ---    0.03332   0.04177   0.04887   0.06807   0.07757
     Eigenvalues ---    0.07758   0.08082   0.09058   0.10294   0.10294
     Eigenvalues ---    0.10384   0.11836   0.12534   0.14038   0.15491
     Eigenvalues ---    0.16000   0.16000   0.16000   0.16000   0.16000
     Eigenvalues ---    0.16000   0.16000   0.16267   0.35994   0.35994
     Eigenvalues ---    0.35994   0.35994   0.35994   0.35994   0.35994
     Eigenvalues ---    0.35994   0.35994   0.37788   0.39585   0.39585
     Eigenvalues ---    0.50138   0.53351   0.554731000.000001000.00000
     Eigenvalues --- 1000.000001000.000001000.000001000.000001000.00000
     Eigenvalues --- 1000.000001000.000001000.000001000.000001000.00000
     Eigenvalues --- 1000.000001000.000001000.000001000.000001000.00000
     Eigenvalues --- 1000.000001000.000001000.000001000.000001000.00000
     Eigenvalues --- 1000.000001000.000001000.000001000.000001000.00000
     Eigenvalues --- 1000.000001000.000001000.000001000.000001000.00000
     Eigenvalues --- 1000.000001000.000001000.000001000.000001000.00000
 RFO step:  Lambda=-2.68637821D-02.
 Linear search not attempted -- first point.
 Maximum step size (   0.300) exceeded in Quadratic search.
    -- Step size scaled by   0.781
 Iteration  1 RMS(Cart)=  0.11495123 RMS(Int)=  0.00849062
 Iteration  2 RMS(Cart)=  0.03236594 RMS(Int)=  0.00056651
 Iteration  3 RMS(Cart)=  0.00089454 RMS(Int)=  0.00027043
 Iteration  4 RMS(Cart)=  0.00000036 RMS(Int)=  0.00027043
 Variable       Old X    -DE/DX   Delta X   Delta X   Delta X     New X
                                 (Linear)    (Quad)   (Total)
    R1        2.04090   0.00788   0.00000   0.01591   0.01591   2.05681
    R2        2.04090   0.01290   0.00000   0.02606   0.02606   2.06696
    R3        2.04090   0.01225   0.00000   0.02473   0.02473   2.06564
    R4        2.72121  -0.01063   0.00000  -0.01965  -0.01965   2.70156
    R5        1.81414   0.00836   0.00000   0.01137   0.01138   1.82551
    R6        4.75286   0.00100   0.00000   0.00348   0.00344   4.75630
    R7        3.75108   0.00054   0.00000   0.01403   0.01408   3.76516
    R8        2.04090   0.00775   0.00000   0.01564   0.01564   2.05655
    R9        2.04090   0.01093   0.00000   0.02207   0.02207   2.06297
   R10        2.04090   0.01134   0.00000   0.02291   0.02291   2.06381
   R11        2.72121  -0.00331   0.00000  -0.00668  -0.00662   2.71459
   R12        4.67860   0.00420   0.00000   0.04387   0.04372   4.72232
   R13        1.81414   0.00605   0.00000   0.00872   0.00874   1.82288
   R14        4.30624  -0.00485   0.00000  -0.04325  -0.04312   4.26312
   R15        2.04090   0.01178   0.00000   0.02379   0.02379   2.06470
   R16        2.04090   0.01258   0.00000   0.02540   0.02540   2.06631
   R17        2.04090   0.00873   0.00000   0.01762   0.01762   2.05852
   R18        2.72121   0.01247   0.00000   0.02304   0.02304   2.74424
   R19        1.81414   0.00894   0.00000   0.01201   0.01201   1.82614
    A1        1.91063  -0.00181   0.00000  -0.01181  -0.01145   1.89919
    A2        1.91086  -0.00150   0.00000  -0.01135  -0.01107   1.89979
    A3        1.91048  -0.00843   0.00000  -0.03993  -0.03960   1.87088
    A4        1.91048  -0.00466   0.00000  -0.01012  -0.01126   1.89922
    A5        1.91072   0.00882   0.00000   0.03942   0.03897   1.94968
    A6        1.91063   0.00758   0.00000   0.03379   0.03330   1.94393
    A7        1.91063  -0.00365   0.00000  -0.02142  -0.02141   1.88922
    A8        2.16958  -0.00162   0.00000  -0.00263  -0.00261   2.16697
    A9        0.89030   0.00226   0.00000   0.00568   0.00569   0.89599
   A10        2.35642  -0.00314   0.00000  -0.00834  -0.00836   2.34807
   A11        1.91075  -0.00035   0.00000  -0.00987  -0.00977   1.90097
   A12        1.91081  -0.00084   0.00000  -0.00916  -0.00900   1.90181
   A13        1.91047  -0.00487   0.00000  -0.03179  -0.03166   1.87882
   A14        0.98237  -0.00096   0.00000  -0.00111  -0.00115   0.98122
   A15        1.91047  -0.00157   0.00000  -0.00367  -0.00433   1.90614
   A16        1.91066   0.00244   0.00000   0.02701   0.02687   1.93753
   A17        2.73517  -0.00044   0.00000  -0.00709  -0.00700   2.72817
   A18        1.91063   0.00519   0.00000   0.02748   0.02714   1.93777
   A19        1.62957   0.00158   0.00000   0.00762   0.00787   1.63744
   A20        2.29575   0.00053   0.00000   0.00249   0.00239   2.29813
   A21        1.39869  -0.00001   0.00000  -0.00316  -0.00314   1.39555
   A22        1.23112  -0.00236   0.00000  -0.01307  -0.01319   1.21793
   A23        1.91063  -0.00233   0.00000  -0.01949  -0.01946   1.89118
   A24        2.55549  -0.00212   0.00000  -0.01028  -0.01045   2.54505
   A25        1.63502   0.00085   0.00000   0.00533   0.00530   1.64033
   A26        1.91079  -0.00376   0.00000  -0.01058  -0.01123   1.89957
   A27        1.91082  -0.00340   0.00000  -0.01625  -0.01622   1.89460
   A28        1.91044   0.00728   0.00000   0.03197   0.03164   1.94208
   A29        1.91044  -0.00411   0.00000  -0.02028  -0.02025   1.89019
   A30        1.91067   0.00722   0.00000   0.03120   0.03087   1.94154
   A31        1.91063  -0.00323   0.00000  -0.01606  -0.01603   1.89461
   A32        1.58201   0.05914   0.00000   0.24717   0.24717   1.82919
   A33        2.89102   0.00019   0.00000   0.00249   0.00259   2.89361
   A34        2.66073   0.00140   0.00000   0.00410   0.00430   2.66503
    D1       -3.06505  -0.00048   0.00000   0.00143   0.00150  -3.06355
    D2       -2.09669   0.00019   0.00000  -0.00412  -0.00412  -2.10082
    D3       -0.97070  -0.00246   0.00000  -0.01335  -0.01390  -0.98460
    D4       -0.00234  -0.00179   0.00000  -0.01889  -0.01952  -0.02186
    D5        1.12356   0.00188   0.00000   0.01909   0.01968   1.14324
    D6        2.09192   0.00255   0.00000   0.01355   0.01406   2.10598
    D7        2.02573   0.00015   0.00000   0.00804   0.00805   2.03377
    D8       -0.04910  -0.00033   0.00000  -0.00396  -0.00392  -0.05301
    D9       -1.46568   0.00289   0.00000   0.03161   0.03156  -1.43412
   D10        0.07195   0.00048   0.00000   0.00636   0.00634   0.07829
   D11        1.97501  -0.00252   0.00000  -0.02030  -0.02037   1.95463
   D12        0.10161   0.00055   0.00000   0.00832   0.00825   0.10986
   D13        2.95328   0.00038   0.00000   0.01610   0.01625   2.96952
   D14        1.53740   0.00164   0.00000   0.02099   0.02098   1.55837
   D15       -3.10441  -0.00027   0.00000  -0.00019  -0.00016  -3.10457
   D16       -2.65134  -0.00027   0.00000   0.00598   0.00559  -2.64575
   D17       -1.00995  -0.00219   0.00000  -0.01520  -0.01556  -1.02551
   D18       -0.55712   0.00248   0.00000   0.03485   0.03528  -0.52184
   D19        1.08426   0.00056   0.00000   0.01367   0.01413   1.09839
   D20        1.58010   0.00102   0.00000   0.00885   0.00882   1.58891
   D21        2.58471  -0.00224   0.00000  -0.01210  -0.01201   2.57269
   D22       -0.36150   0.00295   0.00000   0.02506   0.02500  -0.33651
   D23       -0.02743  -0.00036   0.00000  -0.00263  -0.00264  -0.03007
   D24       -2.30899  -0.00075   0.00000  -0.00281  -0.00299  -2.31198
   D25       -0.53645   0.00157   0.00000   0.02314   0.02308  -0.51337
   D26        0.26326   0.00068   0.00000   0.01605   0.01606   0.27932
   D27        0.79753  -0.00087   0.00000  -0.00886  -0.00884   0.78869
   D28       -1.06334  -0.00163   0.00000  -0.00466  -0.00519  -1.06853
   D29        1.03115   0.00265   0.00000   0.02105   0.02158   1.05274
   D30        3.12534   0.00006   0.00000   0.00549   0.00549   3.13082
   D31       -2.94056   0.00153   0.00000   0.01177   0.01172  -2.92884
   D32        1.42266  -0.00060   0.00000   0.00545   0.00551   1.42817
         Item               Value     Threshold  Converged?
 Maximum Force            0.059140     0.000450     NO 
 RMS     Force            0.008154     0.000300     NO 
 Maximum Displacement     0.501006     0.001800     NO 
 RMS     Displacement     0.144314     0.001200     NO 
 Predicted change in Energy=-1.400489D-02
 GradGradGradGradGradGradGradGradGradGradGradGradGradGradGradGradGradGrad

                          Input orientation:                          
 ---------------------------------------------------------------------
 Center     Atomic     Atomic              Coordinates (Angstroms)
 Number     Number      Type              X           Y           Z
 ---------------------------------------------------------------------
    1          6             0       -1.072961    2.951542    0.166131
    2          1             0       -1.988971    3.481574    0.420383
    3          1             0       -0.445209    2.883599    1.059262
    4          1             0       -0.537200    3.519278   -0.599035
    5          8             0       -1.451765    1.659180   -0.313525
    6          1             0       -0.647539    1.149604   -0.477073
    7          6             0        0.339750   -1.820531   -0.270094
    8          1             0        1.322613   -1.826656   -0.737312
    9          1             0        0.311408   -2.589004    0.504766
   10          1             0       -0.414547   -2.045500   -1.027163
   11          8             0        0.132713   -0.514742    0.291666
   12          1             0       -0.722420   -0.508143    0.737990
   13          6             0        2.565016    1.565231   -1.593989
   14          1             0        2.175687    2.085774   -0.715801
   15          1             0        3.423390    0.958422   -1.293004
   16          1             0        2.906756    2.307898   -2.313908
   17          8             0        1.539310    0.751068   -2.221622
   18          1             0        1.284274    0.110187   -1.544815
 ---------------------------------------------------------------------
                    Distance matrix (angstroms):
                    1          2          3          4          5
     1  C    0.000000
     2  H    1.088417   0.000000
     3  H    1.093788   1.774526   0.000000
     4  H    1.093088   1.774337   1.778342   0.000000
     5  O    1.429603   2.036746   2.096879   2.092346   0.000000
     6  H    1.960020   2.836010   2.325512   2.375375   0.966020
     7  C    4.995871   5.831983   4.950978   5.421329   3.914052
     8  H    5.420901   6.362716   5.342226   5.661894   4.475245
     9  H    5.720909   6.492364   5.552415   6.264952   4.671771
    10  H    5.179565   5.926445   5.352581   5.582571   3.912768
    11  O    3.672130   4.526440   3.531560   4.185147   2.757311
    12  H    3.524106   4.197960   3.418182   4.247595   2.516926
    13  C    4.272558   5.335621   4.223658   3.798944   4.216983
    14  H    3.475784   4.536909   3.264425   3.070558   3.674536
    15  H    5.130182   6.212538   4.919910   4.767164   5.021710
    16  H    4.733183   5.729049   4.790134   4.033494   4.839326
    17  O    4.167423   5.185038   4.387506   3.821999   3.662244
    18  H    4.069053   5.093367   4.179013   3.979218   3.376591
                    6          7          8          9         10
     6  H    0.000000
     7  C    3.136763   0.000000
     8  H    3.578735   1.088278   0.000000
     9  H    3.982559   1.091678   1.773829   0.000000
    10  H    3.250472   1.092121   1.774720   1.780229   0.000000
    11  O    1.992436   1.436497   2.048359   2.092823   2.093329
    12  H    2.056723   1.966418   2.845549   2.335204   2.360936
    13  C    3.426479   4.262381   3.712460   5.171189   4.715556
    14  H    2.983959   4.339187   4.004411   5.178694   4.886071
    15  H    4.156291   4.275250   3.532523   5.049816   4.880981
    16  H    4.165168   5.273578   4.699969   6.217750   5.624842
    17  O    2.825702   3.443912   2.982414   4.482970   3.614565
    18  H    2.439746   2.498942   2.098784   3.526030   2.793017
                   11         12         13         14         15
    11  O    0.000000
    12  H    0.964624   0.000000
    13  C    3.714577   4.532575   0.000000
    14  H    3.457082   4.152221   1.092591   0.000000
    15  H    3.938266   4.843912   1.093442   1.777877   0.000000
    16  H    4.738315   5.514987   1.089323   1.771369   1.769249
    17  O    3.146015   3.931963   1.452191   2.110429   2.110707
    18  H    2.255946   3.101669   1.939039   2.320523   2.314892
                   16         17         18
    16  H    0.000000
    17  O    2.074161   0.000000
    18  H    2.837937   0.966353   0.000000
 Stoichiometry    C3H12O3
 Framework group  C1[X(C3H12O3)]
 Deg. of freedom    48
 Full point group                 C1      NOp   1
 Largest Abelian subgroup         C1      NOp   1
 Largest concise Abelian subgroup C1      NOp   1
                         Standard orientation:                         
 ---------------------------------------------------------------------
 Center     Atomic     Atomic              Coordinates (Angstroms)
 Number     Number      Type              X           Y           Z
 ---------------------------------------------------------------------
    1          6             0       -2.724332    0.175544    0.230601
    2          1             0       -3.744495   -0.155616    0.045528
    3          1             0       -2.515732    0.094046    1.301216
    4          1             0       -2.633560    1.223263   -0.067538
    5          8             0       -1.861277   -0.662673   -0.541599
    6          1             0       -0.947309   -0.428330   -0.334380
    7          6             0        1.837357   -1.842872   -0.044573
    8          1             0        2.557279   -1.033953    0.063656
    9          1             0        2.203953   -2.717620    0.495968
   10          1             0        1.738106   -2.090364   -1.103642
   11          8             0        0.587179   -1.388732    0.497952
   12          1             0       -0.050148   -2.110318    0.437711
   13          6             0        0.974742    2.304845    0.424718
   14          1             0        0.125332    1.994549    1.037885
   15          1             0        1.878122    2.292151    1.040639
   16          1             0        0.804419    3.326847    0.088374
   17          8             0        1.121438    1.452807   -0.742060
   18          1             0        1.278709    0.569027   -0.384238
 ---------------------------------------------------------------------
 Rotational constants (GHZ):      2.0911593      1.6985199      1.0369501
 Standard basis: 6-31G(d,p) (6D, 7F)
 There are   150 symmetry adapted basis functions of A   symmetry.
 Integral buffers will be    262144 words long.
 Raffenetti 2 integral format.
 Two-electron integral symmetry is turned on.
   150 basis functions,   252 primitive gaussians,   150 cartesian basis functions
    27 alpha electrons       27 beta electrons
       nuclear repulsion energy       256.7268112611 Hartrees.
 NAtoms=   18 NActive=   18 NUniq=   18 SFac= 1.00D+00 NAtFMM=   60 Big=F
 One-electron integrals computed using PRISM.
 NBasis=   150 RedAO= T  NBF=   150
 NBsUse=   150 1.00D-06 NBFU=   150
 Initial guess read from the read-write file:
 Initial guess orbital symmetries:
       Occupied  (A) (A) (A) (A) (A) (A) (A) (A) (A) (A) (A) (A)
                 (A) (A) (A) (A) (A) (A) (A) (A) (A) (A) (A) (A)
                 (A) (A) (A)
       Virtual   (A) (A) (A) (A) (A) (A) (A) (A) (A) (A) (A) (A)
                 (A) (A) (A) (A) (A) (A) (A) (A) (A) (A) (A) (A)
                 (A) (A) (A) (A) (A) (A) (A) (A) (A) (A) (A) (A)
                 (A) (A) (A) (A) (A) (A) (A) (A) (A) (A) (A) (A)
                 (A) (A) (A) (A) (A) (A) (A) (A) (A) (A) (A) (A)
                 (A) (A) (A) (A) (A) (A) (A) (A) (A) (A) (A) (A)
                 (A) (A) (A) (A) (A) (A) (A) (A) (A) (A) (A) (A)
                 (A) (A) (A) (A) (A) (A) (A) (A) (A) (A) (A) (A)
                 (A) (A) (A) (A) (A) (A) (A) (A) (A) (A) (A) (A)
                 (A) (A) (A) (A) (A) (A) (A) (A) (A) (A) (A) (A)
                 (A) (A) (A)
 Harris functional with IExCor=  402 diagonalized for initial guess.
 ExpMin= 1.61D-01 ExpMax= 5.48D+03 ExpMxC= 8.25D+02 IAcc=1 IRadAn=         1 AccDes= 1.00D-06
 HarFok:  IExCor= 402 AccDes= 1.00D-06 IRadAn=         1 IDoV=1
 ScaDFX=  1.000000  1.000000  1.000000  1.000000
 Requested convergence on RMS density matrix=1.00D-08 within 128 cycles.
 Requested convergence on MAX density matrix=1.00D-06.
 Requested convergence on             energy=1.00D-06.
 No special actions if energy rises.
 Integral accuracy reduced to 1.0D-05 until final iterations.
 Initial convergence to 1.0D-05 achieved.  Increase integral accuracy.
 SCF Done:  E(RB+HF-LYP) =  -347.185248312     A.U. after   13 cycles
             Convg  =    0.5376D-08             -V/T =  2.0089
             S**2   =   0.0000
 ***** Axes restored to original set *****
 -------------------------------------------------------------------
 Center     Atomic                   Forces (Hartrees/Bohr)
 Number     Number              X              Y              Z
 -------------------------------------------------------------------
    1          6          -0.001489939   -0.013763531   -0.005499584
    2          1          -0.002135410    0.001978888    0.000825336
    3          1           0.002016043    0.001825692    0.003722829
    4          1           0.001719492    0.003710493   -0.001610137
    5          8          -0.003720662    0.006413615    0.004715181
    6          1           0.002634655    0.000603086   -0.003506216
    7          6          -0.006958390    0.006060457    0.005472048
    8          1           0.002625268   -0.000149166   -0.000646379
    9          1           0.001270818   -0.003164882    0.001332915
   10          1          -0.001149420   -0.002316662   -0.002957264
   11          8           0.008533393   -0.006253715   -0.002641873
   12          1          -0.002557432    0.002389771   -0.000623435
   13          6          -0.012900506   -0.011447566   -0.006487843
   14          1          -0.000130218    0.002189181    0.002839839
   15          1           0.003222481   -0.000746559    0.001117899
   16          1          -0.001640947    0.000048270   -0.003166729
   17          8           0.013459383    0.010220590    0.007825255
   18          1          -0.002798608    0.002402037   -0.000711841
 -------------------------------------------------------------------
 Cartesian Forces:  Max     0.013763531 RMS     0.005072736

 GradGradGradGradGradGradGradGradGradGradGradGradGradGradGradGradGradGrad
 Berny optimization.
 Internal  Forces:  Max     0.016132322 RMS     0.002604948
 Search for a local minimum.
 Step number   2 out of a maximum of  95
 All quantities printed in internal units (Hartrees-Bohrs-Radians)
 Update second derivatives using D2CorX and points  1  2
 Trust test= 8.29D-01 RLast= 3.00D-01 DXMaxT set to 4.24D-01
     Eigenvalues ---    0.00397   0.00680   0.01163   0.01163   0.01518
     Eigenvalues ---    0.01558   0.01906   0.02526   0.02919   0.03077
     Eigenvalues ---    0.03315   0.04117   0.04876   0.06690   0.07392
     Eigenvalues ---    0.07881   0.08086   0.09185   0.09900   0.10291
     Eigenvalues ---    0.10375   0.11832   0.12655   0.14053   0.15288
     Eigenvalues ---    0.15520   0.16000   0.16000   0.16000   0.16000
     Eigenvalues ---    0.16000   0.16230   0.20198   0.34388   0.35994
     Eigenvalues ---    0.35994   0.35994   0.35994   0.35994   0.35994
     Eigenvalues ---    0.35994   0.36007   0.37681   0.39402   0.45498
     Eigenvalues ---    0.50118   0.53317   0.558871000.000001000.00000
     Eigenvalues --- 1000.000001000.000001000.000001000.000001000.00000
     Eigenvalues --- 1000.000001000.000001000.000001000.000001000.00000
     Eigenvalues --- 1000.000001000.000001000.000001000.000001000.00000
     Eigenvalues --- 1000.000001000.000001000.000001000.000001000.00000
     Eigenvalues --- 1000.000001000.000001000.000001000.000001000.00000
     Eigenvalues --- 1000.000001000.000001000.000001000.000001000.00000
     Eigenvalues --- 1000.000001000.000001000.000001000.000001000.00000
 RFO step:  Lambda=-2.97268417D-03.
 Quartic linear search produced a step of  0.19582.
 Iteration  1 RMS(Cart)=  0.05902903 RMS(Int)=  0.00145678
 Iteration  2 RMS(Cart)=  0.00189451 RMS(Int)=  0.00034629
 Iteration  3 RMS(Cart)=  0.00000218 RMS(Int)=  0.00034628
 Iteration  4 RMS(Cart)=  0.00000000 RMS(Int)=  0.00034628
 Variable       Old X    -DE/DX   Delta X   Delta X   Delta X     New X
                                 (Linear)    (Quad)   (Total)
    R1        2.05681   0.00295   0.00311   0.00749   0.01060   2.06741
    R2        2.06696   0.00408   0.00510   0.00978   0.01489   2.08184
    R3        2.06564   0.00390   0.00484   0.00936   0.01421   2.07985
    R4        2.70156  -0.00648  -0.00385  -0.01663  -0.02048   2.68108
    R5        1.82551   0.00347   0.00223   0.00484   0.00704   1.83255
    R6        4.75630   0.00018   0.00067   0.00447   0.00520   4.76150
    R7        3.76516   0.00138   0.00276   0.03336   0.03607   3.80123
    R8        2.05655   0.00265   0.00306   0.00652   0.00958   2.06613
    R9        2.06297   0.00314   0.00432   0.00725   0.01157   2.07454
   R10        2.06381   0.00332   0.00449   0.00772   0.01220   2.07601
   R11        2.71459  -0.00318  -0.00130  -0.00933  -0.01029   2.70430
   R12        4.72232   0.00238   0.00856   0.07521   0.08344   4.80575
   R13        1.82288   0.00187   0.00171   0.00415   0.00587   1.82875
   R14        4.26312  -0.00287  -0.00844  -0.06766  -0.07594   4.18718
   R15        2.06470   0.00337   0.00466   0.00776   0.01242   2.07712
   R16        2.06631   0.00325   0.00497   0.00715   0.01212   2.07843
   R17        2.05852   0.00161   0.00345   0.00284   0.00629   2.06481
   R18        2.74424  -0.01613   0.00451  -0.05143  -0.04692   2.69733
   R19        1.82614  -0.00079   0.00235  -0.00335  -0.00100   1.82514
    A1        1.89919  -0.00154  -0.00224  -0.01226  -0.01439   1.88480
    A2        1.89979  -0.00149  -0.00217  -0.01223  -0.01430   1.88549
    A3        1.87088  -0.00020  -0.00775   0.00133  -0.00631   1.86457
    A4        1.89922  -0.00184  -0.00221  -0.00668  -0.00948   1.88974
    A5        1.94968   0.00254   0.00763   0.01457   0.02191   1.97159
    A6        1.94393   0.00238   0.00652   0.01408   0.02030   1.96423
    A7        1.88922  -0.00112  -0.00419  -0.00970  -0.01381   1.87541
    A8        2.16697  -0.00028  -0.00051   0.00472   0.00412   2.17109
    A9        0.89599   0.00117   0.00111   0.00497   0.00604   0.90204
   A10        2.34807  -0.00185  -0.00164  -0.00950  -0.01145   2.33662
   A11        1.90097  -0.00082  -0.00191  -0.00666  -0.00816   1.89282
   A12        1.90181  -0.00057  -0.00176  -0.01219  -0.01396   1.88786
   A13        1.87882  -0.00130  -0.00620  -0.01966  -0.02562   1.85319
   A14        0.98122   0.00067  -0.00023   0.01622   0.01617   0.99739
   A15        1.90614  -0.00075  -0.00085   0.00091  -0.00048   1.90566
   A16        1.93753   0.00126   0.00526   0.02287   0.02760   1.96513
   A17        2.72817  -0.00008  -0.00137  -0.01161  -0.01314   2.71502
   A18        1.93777   0.00210   0.00531   0.01348   0.01828   1.95605
   A19        1.63744   0.00066   0.00154   0.01326   0.01539   1.65283
   A20        2.29813   0.00029   0.00047  -0.00303  -0.00269   2.29545
   A21        1.39555  -0.00034  -0.00061  -0.01117  -0.01167   1.38388
   A22        1.21793  -0.00175  -0.00258  -0.02192  -0.02413   1.19380
   A23        1.89118  -0.00098  -0.00381  -0.01134  -0.01523   1.87595
   A24        2.54505  -0.00178  -0.00205  -0.00964  -0.01327   2.53178
   A25        1.64033   0.00098   0.00104   0.01302   0.01371   1.65404
   A26        1.89957  -0.00063  -0.00220   0.00393   0.00116   1.90073
   A27        1.89460   0.00063  -0.00318   0.00308  -0.00003   1.89456
   A28        1.94208   0.00249   0.00619   0.01561   0.02151   1.96358
   A29        1.89019   0.00070  -0.00396   0.00456   0.00068   1.89088
   A30        1.94154   0.00258   0.00604   0.01654   0.02229   1.96383
   A31        1.89461  -0.00586  -0.00314  -0.04430  -0.04736   1.84724
   A32        1.82919   0.00496   0.04840   0.00147   0.04987   1.87906
   A33        2.89361   0.00042   0.00051   0.00465   0.00553   2.89914
   A34        2.66503   0.00091   0.00084   0.00469   0.00628   2.67132
    D1       -3.06355  -0.00045   0.00029  -0.00430  -0.00391  -3.06747
    D2       -2.10082   0.00032  -0.00081  -0.00441  -0.00530  -2.10611
    D3       -0.98460  -0.00099  -0.00272  -0.01004  -0.01295  -0.99755
    D4       -0.02186  -0.00022  -0.00382  -0.01015  -0.01433  -0.03619
    D5        1.14324   0.00013   0.00385   0.00171   0.00592   1.14916
    D6        2.10598   0.00090   0.00275   0.00161   0.00454   2.11052
    D7        2.03377   0.00012   0.00158  -0.00852  -0.00681   2.02697
    D8       -0.05301  -0.00025  -0.00077  -0.02132  -0.02167  -0.07468
    D9       -1.43412   0.00102   0.00618   0.04747   0.05353  -1.38059
   D10        0.07829   0.00046   0.00124   0.03283   0.03413   0.11242
   D11        1.95463  -0.00108  -0.00399   0.01964   0.01524   1.96988
   D12        0.10986   0.00051   0.00162   0.04482   0.04590   0.15575
   D13        2.96952   0.00062   0.00318   0.08719   0.09139   3.06092
   D14        1.55837   0.00087   0.00411   0.02873   0.03270   1.59108
   D15       -3.10457  -0.00038  -0.00003   0.00176   0.00191  -3.10266
   D16       -2.64575  -0.00020   0.00109   0.02172   0.02244  -2.62331
   D17       -1.02551  -0.00146  -0.00305  -0.00525  -0.00836  -1.03387
   D18       -0.52184   0.00116   0.00691   0.04792   0.05513  -0.46671
   D19        1.09839  -0.00010   0.00277   0.02095   0.02434   1.12273
   D20        1.58891   0.00000   0.00173  -0.00815  -0.00620   1.58271
   D21        2.57269  -0.00046  -0.00235   0.04774   0.04518   2.61787
   D22       -0.33651   0.00127   0.00489   0.01866   0.02344  -0.31306
   D23       -0.03007  -0.00025  -0.00052  -0.01258  -0.01313  -0.04320
   D24       -2.31198  -0.00041  -0.00059  -0.00561  -0.00662  -2.31859
   D25       -0.51337   0.00166   0.00452   0.07588   0.08009  -0.43328
   D26        0.27932   0.00070   0.00315   0.03319   0.03653   0.31585
   D27        0.78869  -0.00101  -0.00173  -0.05755  -0.05929   0.72940
   D28       -1.06853  -0.00119  -0.00102   0.00115  -0.00035  -1.06888
   D29        1.05274   0.00154   0.00423   0.02852   0.03324   1.08598
   D30        3.13082   0.00025   0.00107   0.01609   0.01715  -3.13521
   D31       -2.92884   0.00076   0.00229   0.01187   0.01389  -2.91495
   D32        1.42817  -0.00030   0.00108   0.01522   0.01656   1.44473
         Item               Value     Threshold  Converged?
 Maximum Force            0.016132     0.000450     NO 
 RMS     Force            0.002605     0.000300     NO 
 Maximum Displacement     0.175191     0.001800     NO 
 RMS     Displacement     0.059546     0.001200     NO 
 Predicted change in Energy=-1.679266D-03
 GradGradGradGradGradGradGradGradGradGradGradGradGradGradGradGradGradGrad

                          Input orientation:                          
 ---------------------------------------------------------------------
 Center     Atomic     Atomic              Coordinates (Angstroms)
 Number     Number      Type              X           Y           Z
 ---------------------------------------------------------------------
    1          6             0       -1.026509    2.928352    0.126002
    2          1             0       -1.923215    3.482550    0.418711
    3          1             0       -0.353883    2.884724    0.997401
    4          1             0       -0.521612    3.494114   -0.671699
    5          8             0       -1.457733    1.647294   -0.305083
    6          1             0       -0.665017    1.124786   -0.502538
    7          6             0        0.305253   -1.860124   -0.258977
    8          1             0        1.292534   -1.870434   -0.728641
    9          1             0        0.279513   -2.640373    0.512850
   10          1             0       -0.443106   -2.089884   -1.029721
   11          8             0        0.134531   -0.546154    0.281624
   12          1             0       -0.720804   -0.526705    0.733870
   13          6             0        2.550822    1.612078   -1.563030
   14          1             0        2.211637    2.138675   -0.659808
   15          1             0        3.452643    1.031475   -1.319503
   16          1             0        2.814049    2.354636   -2.320133
   17          8             0        1.524348    0.809098   -2.145215
   18          1             0        1.266855    0.144674   -1.493255
 ---------------------------------------------------------------------
                    Distance matrix (angstroms):
                    1          2          3          4          5
     1  C    0.000000
     2  H    1.094027   0.000000
     3  H    1.101665   1.776255   0.000000
     4  H    1.100607   1.775844   1.784765   0.000000
     5  O    1.418766   2.026996   2.108598   2.102730   0.000000
     6  H    1.943859   2.826802   2.333239   2.379684   0.969743
     7  C    4.985109   5.828336   4.952428   5.433407   3.925842
     8  H    5.397844   6.349165   5.319910   5.663280   4.485286
     9  H    5.732891   6.507769   5.582354   6.298959   4.697992
    10  H    5.182543   5.944805   5.372515   5.596015   3.939679
    11  O    3.666664   4.525878   3.538618   4.202751   2.773220
    12  H    3.521417   4.197529   3.441211   4.264070   2.519675
    13  C    4.169257   5.238604   4.075874   3.711654   4.201451
    14  H    3.424423   4.479531   3.144014   3.050902   3.719081
    15  H    5.074488   6.158653   4.826201   4.720057   5.051740
    16  H    4.589402   5.587050   4.617664   3.891321   4.775865
    17  O    4.019520   5.060312   4.208565   3.683274   3.602981
    18  H    3.953527   4.997357   4.042034   3.884883   3.330616
                    6          7          8          9         10
     6  H    0.000000
     7  C    3.148085   0.000000
     8  H    3.585314   1.093350   0.000000
     9  H    4.012428   1.097801   1.777728   0.000000
    10  H    3.265161   1.098580   1.775177   1.790179   0.000000
    11  O    2.011524   1.431053   2.028626   2.111927   2.106274
    12  H    2.063793   1.953598   2.828087   2.348845   2.372951
    13  C    3.421070   4.335819   3.795706   5.248949   4.790883
    14  H    3.054151   4.448073   4.113689   5.286542   5.006516
    15  H    4.198960   4.403649   3.665551   5.187363   5.000372
    16  H    4.113403   5.320397   4.764354   6.276924   5.659327
    17  O    2.755244   3.488386   3.039788   4.529214   3.676861
    18  H    2.382072   2.543096   2.155447   3.571524   2.851680
                   11         12         13         14         15
    11  O    0.000000
    12  H    0.967731   0.000000
    13  C    3.728161   4.533617   0.000000
    14  H    3.522637   4.200690   1.099164   0.000000
    15  H    4.007791   4.905296   1.099857   1.789185   0.000000
    16  H    4.729010   5.488556   1.092650   1.779387   1.777587
    17  O    3.107708   3.887700   1.427363   2.108690   2.109401
    18  H    2.215760   3.059677   1.951081   2.358662   2.365222
                   16         17         18
    16  H    0.000000
    17  O    2.020547   0.000000
    18  H    2.821608   0.965824   0.000000
 Stoichiometry    C3H12O3
 Framework group  C1[X(C3H12O3)]
 Deg. of freedom    48
 Full point group                 C1      NOp   1
 Largest Abelian subgroup         C1      NOp   1
 Largest concise Abelian subgroup C1      NOp   1
                         Standard orientation:                         
 ---------------------------------------------------------------------
 Center     Atomic     Atomic              Coordinates (Angstroms)
 Number     Number      Type              X           Y           Z
 ---------------------------------------------------------------------
    1          6             0       -2.663093   -0.205717    0.229709
    2          1             0       -3.636414   -0.689282    0.104381
    3          1             0       -2.431935   -0.180260    1.306549
    4          1             0       -2.749050    0.831095   -0.129413
    5          8             0       -1.727613   -0.965015   -0.519451
    6          1             0       -0.850042   -0.584305   -0.360295
    7          6             0        2.122231   -1.574390   -0.050843
    8          1             0        2.712327   -0.658240    0.037868
    9          1             0        2.637235   -2.373848    0.497615
   10          1             0        2.066365   -1.844186   -1.114312
   11          8             0        0.834436   -1.273778    0.496085
   12          1             0        0.306643   -2.084084    0.459450
   13          6             0        0.552770    2.442428    0.397814
   14          1             0       -0.217249    2.038795    1.070356
   15          1             0        1.460167    2.654941    0.981898
   16          1             0        0.187815    3.381814   -0.024378
   17          8             0        0.807601    1.587505   -0.716428
   18          1             0        1.127305    0.743942   -0.371455
 ---------------------------------------------------------------------
 Rotational constants (GHZ):      2.0573026      1.7560579      1.0440840
 Standard basis: 6-31G(d,p) (6D, 7F)
 There are   150 symmetry adapted basis functions of A   symmetry.
 Integral buffers will be    262144 words long.
 Raffenetti 2 integral format.
 Two-electron integral symmetry is turned on.
   150 basis functions,   252 primitive gaussians,   150 cartesian basis functions
    27 alpha electrons       27 beta electrons
       nuclear repulsion energy       257.5353466004 Hartrees.
 NAtoms=   18 NActive=   18 NUniq=   18 SFac= 1.00D+00 NAtFMM=   60 Big=F
 One-electron integrals computed using PRISM.
 NBasis=   150 RedAO= T  NBF=   150
 NBsUse=   150 1.00D-06 NBFU=   150
 Initial guess read from the read-write file:
 Initial guess orbital symmetries:
       Occupied  (A) (A) (A) (A) (A) (A) (A) (A) (A) (A) (A) (A)
                 (A) (A) (A) (A) (A) (A) (A) (A) (A) (A) (A) (A)
                 (A) (A) (A)
       Virtual   (A) (A) (A) (A) (A) (A) (A) (A) (A) (A) (A) (A)
                 (A) (A) (A) (A) (A) (A) (A) (A) (A) (A) (A) (A)
                 (A) (A) (A) (A) (A) (A) (A) (A) (A) (A) (A) (A)
                 (A) (A) (A) (A) (A) (A) (A) (A) (A) (A) (A) (A)
                 (A) (A) (A) (A) (A) (A) (A) (A) (A) (A) (A) (A)
                 (A) (A) (A) (A) (A) (A) (A) (A) (A) (A) (A) (A)
                 (A) (A) (A) (A) (A) (A) (A) (A) (A) (A) (A) (A)
                 (A) (A) (A) (A) (A) (A) (A) (A) (A) (A) (A) (A)
                 (A) (A) (A) (A) (A) (A) (A) (A) (A) (A) (A) (A)
                 (A) (A) (A) (A) (A) (A) (A) (A) (A) (A) (A) (A)
                 (A) (A) (A)
 Harris functional with IExCor=  402 diagonalized for initial guess.
 ExpMin= 1.61D-01 ExpMax= 5.48D+03 ExpMxC= 8.25D+02 IAcc=1 IRadAn=         1 AccDes= 1.00D-06
 HarFok:  IExCor= 402 AccDes= 1.00D-06 IRadAn=         1 IDoV=1
 ScaDFX=  1.000000  1.000000  1.000000  1.000000
 Requested convergence on RMS density matrix=1.00D-08 within 128 cycles.
 Requested convergence on MAX density matrix=1.00D-06.
 Requested convergence on             energy=1.00D-06.
 No special actions if energy rises.
 Integral accuracy reduced to 1.0D-05 until final iterations.
 Initial convergence to 1.0D-05 achieved.  Increase integral accuracy.
 SCF Done:  E(RB+HF-LYP) =  -347.187296985     A.U. after   11 cycles
             Convg  =    0.3292D-08             -V/T =  2.0090
             S**2   =   0.0000
 ***** Axes restored to original set *****
 -------------------------------------------------------------------
 Center     Atomic                   Forces (Hartrees/Bohr)
 Number     Number              X              Y              Z
 -------------------------------------------------------------------
    1          6          -0.002343219   -0.001037954   -0.000714929
    2          1           0.000673308    0.000891049    0.000258008
    3          1          -0.000258075   -0.000126634   -0.000296355
    4          1          -0.000041266   -0.000412990    0.000342465
    5          8           0.002346716    0.000055362    0.002458872
    6          1          -0.001126434    0.001415264   -0.003480406
    7          6           0.000626993    0.001244897   -0.001675312
    8          1           0.000002233   -0.002328927    0.000133767
    9          1           0.000168382    0.001319840    0.000215545
   10          1           0.000051974   -0.000338956    0.000907866
   11          8           0.000705372   -0.007535035    0.001221065
   12          1           0.000106846    0.004537736   -0.001128891
   13          6          -0.004735935   -0.002947200   -0.004307220
   14          1           0.000803125   -0.000156901    0.000123197
   15          1          -0.000066277    0.000489208    0.000397574
   16          1           0.001349545    0.001010516    0.001162708
   17          8           0.002539256    0.001083913    0.002579200
   18          1          -0.000802545    0.002836812    0.001802846
 -------------------------------------------------------------------
 Cartesian Forces:  Max     0.007535035 RMS     0.001974613

 GradGradGradGradGradGradGradGradGradGradGradGradGradGradGradGradGradGrad
 Berny optimization.
 Internal  Forces:  Max     0.003877523 RMS     0.000926717
 Search for a local minimum.
 Step number   3 out of a maximum of  95
 All quantities printed in internal units (Hartrees-Bohrs-Radians)
 Update second derivatives using D2CorX and points  1  2  3
 Trust test= 1.22D+00 RLast= 2.58D-01 DXMaxT set to 6.00D-01
     Eigenvalues ---    0.00388   0.00656   0.01138   0.01163   0.01246
     Eigenvalues ---    0.01555   0.01927   0.02562   0.02881   0.03070
     Eigenvalues ---    0.03317   0.03862   0.04737   0.06609   0.07219
     Eigenvalues ---    0.07846   0.07849   0.09008   0.10042   0.10503
     Eigenvalues ---    0.10519   0.11717   0.12817   0.13971   0.15037
     Eigenvalues ---    0.15742   0.16000   0.16000   0.16000   0.16000
     Eigenvalues ---    0.16185   0.18013   0.21102   0.35446   0.35994
     Eigenvalues ---    0.35994   0.35994   0.35994   0.35994   0.35994
     Eigenvalues ---    0.36004   0.36381   0.37537   0.39272   0.45055
     Eigenvalues ---    0.50035   0.53709   0.559231000.000001000.00000
     Eigenvalues --- 1000.000001000.000001000.000001000.000001000.00000
     Eigenvalues --- 1000.000001000.000001000.000001000.000001000.00000
     Eigenvalues --- 1000.000001000.000001000.000001000.000001000.00000
     Eigenvalues --- 1000.000001000.000001000.000001000.000001000.00000
     Eigenvalues --- 1000.000001000.000001000.000001000.000001000.00000
     Eigenvalues --- 1000.000001000.000001000.000001000.000001000.00000
     Eigenvalues --- 1000.000001000.000001000.000001000.000001000.00000
 RFO step:  Lambda=-1.08615783D-03.
 Quartic linear search produced a step of  0.22807.
 Iteration  1 RMS(Cart)=  0.05983809 RMS(Int)=  0.00171777
 Iteration  2 RMS(Cart)=  0.00167547 RMS(Int)=  0.00063731
 Iteration  3 RMS(Cart)=  0.00000248 RMS(Int)=  0.00063731
 Iteration  4 RMS(Cart)=  0.00000000 RMS(Int)=  0.00063731
 Variable       Old X    -DE/DX   Delta X   Delta X   Delta X     New X
                                 (Linear)    (Quad)   (Total)
    R1        2.06741  -0.00003   0.00242   0.00136   0.00378   2.07119
    R2        2.08184  -0.00039   0.00339   0.00103   0.00442   2.08627
    R3        2.07985  -0.00048   0.00324   0.00061   0.00385   2.08370
    R4        2.68108  -0.00135  -0.00467  -0.00611  -0.01078   2.67030
    R5        1.83255   0.00027   0.00160  -0.00025   0.00128   1.83383
    R6        4.76150  -0.00059   0.00118   0.00108   0.00252   4.76401
    R7        3.80123   0.00209   0.00823   0.03960   0.04758   3.84881
    R8        2.06613  -0.00003   0.00219   0.00130   0.00348   2.06961
    R9        2.07454  -0.00079   0.00264  -0.00068   0.00196   2.07650
   R10        2.07601  -0.00060   0.00278   0.00001   0.00280   2.07881
   R11        2.70430  -0.00094  -0.00235  -0.00369  -0.00556   2.69874
   R12        4.80575   0.00081   0.01903   0.05730   0.07614   4.88189
   R13        1.82875  -0.00071   0.00134   0.00067   0.00193   1.83068
   R14        4.18718  -0.00125  -0.01732  -0.06341  -0.08082   4.10636
   R15        2.07712  -0.00022   0.00283   0.00132   0.00415   2.08127
   R16        2.07843  -0.00023   0.00276   0.00139   0.00416   2.08259
   R17        2.06481   0.00021   0.00143   0.00206   0.00349   2.06830
   R18        2.69733  -0.00388  -0.01070  -0.01206  -0.02276   2.67456
   R19        1.82514  -0.00035  -0.00023  -0.00005  -0.00028   1.82486
    A1        1.88480  -0.00053  -0.00328  -0.00377  -0.00706   1.87773
    A2        1.88549  -0.00046  -0.00326  -0.00258  -0.00586   1.87963
    A3        1.86457   0.00185  -0.00144   0.01240   0.01094   1.87551
    A4        1.88974   0.00005  -0.00216  -0.00391  -0.00616   1.88357
    A5        1.97159  -0.00052   0.00500  -0.00141   0.00353   1.97512
    A6        1.96423  -0.00040   0.00463  -0.00075   0.00382   1.96805
    A7        1.87541   0.00047  -0.00315   0.00698   0.00377   1.87918
    A8        2.17109   0.00055   0.00094   0.00582   0.00645   2.17753
    A9        0.90204   0.00048   0.00138   0.00639   0.00774   0.90978
   A10        2.33662  -0.00099  -0.00261  -0.01169  -0.01467   2.32195
   A11        1.89282  -0.00128  -0.00186   0.00221   0.00147   1.89429
   A12        1.88786  -0.00022  -0.00318  -0.00424  -0.00773   1.88012
   A13        1.85319   0.00149  -0.00584   0.00633   0.00085   1.85404
   A14        0.99739   0.00213   0.00369   0.02948   0.03407   1.03146
   A15        1.90566  -0.00022  -0.00011   0.00109   0.00072   1.90639
   A16        1.96513   0.00010   0.00629  -0.00123   0.00417   1.96931
   A17        2.71502   0.00006  -0.00300  -0.01240  -0.01751   2.69751
   A18        1.95605   0.00010   0.00417  -0.00401  -0.00001   1.95604
   A19        1.65283   0.00029   0.00351   0.01997   0.02376   1.67659
   A20        2.29545   0.00001  -0.00061  -0.00571  -0.00616   2.28929
   A21        1.38388  -0.00082  -0.00266  -0.01316  -0.01549   1.36839
   A22        1.19380  -0.00092  -0.00550  -0.02238  -0.02699   1.16681
   A23        1.87595   0.00052  -0.00347   0.00933   0.00586   1.88180
   A24        2.53178  -0.00143  -0.00303  -0.01179  -0.01833   2.51344
   A25        1.65404   0.00131   0.00313   0.01547   0.01801   1.67205
   A26        1.90073  -0.00115   0.00027  -0.01281  -0.01266   1.88807
   A27        1.89456  -0.00112  -0.00001  -0.00707  -0.00712   1.88744
   A28        1.96358   0.00023   0.00491   0.00348   0.00830   1.97188
   A29        1.89088  -0.00101   0.00016  -0.00665  -0.00652   1.88436
   A30        1.96383  -0.00005   0.00508   0.00136   0.00637   1.97020
   A31        1.84724   0.00311  -0.01080   0.02188   0.01105   1.85829
   A32        1.87906  -0.00030   0.01137   0.01659   0.02797   1.90703
   A33        2.89914   0.00041   0.00126   0.00488   0.00644   2.90558
   A34        2.67132   0.00015   0.00143   0.00214   0.00449   2.67581
    D1       -3.06747  -0.00044  -0.00089  -0.01220  -0.01308  -3.08054
    D2       -2.10611   0.00038  -0.00121  -0.00069  -0.00190  -2.10801
    D3       -0.99755  -0.00019  -0.00295  -0.00961  -0.01258  -1.01013
    D4       -0.03619   0.00063  -0.00327   0.00190  -0.00141  -0.03760
    D5        1.14916  -0.00083   0.00135  -0.01649  -0.01511   1.13406
    D6        2.11052  -0.00001   0.00103  -0.00498  -0.00393   2.10658
    D7        2.02697   0.00027  -0.00155  -0.01419  -0.01534   2.01163
    D8       -0.07468  -0.00005  -0.00494  -0.01588  -0.02009  -0.09477
    D9       -1.38059  -0.00029   0.01221   0.01634   0.02829  -1.35229
   D10        0.11242   0.00029   0.00778   0.02651   0.03427   0.14668
   D11        1.96988   0.00021   0.00348   0.03542   0.03845   2.00832
   D12        0.15575   0.00022   0.01047   0.03449   0.04400   0.19976
   D13        3.06092   0.00068   0.02084   0.09036   0.11303  -3.10924
   D14        1.59108   0.00044   0.00746   0.01256   0.01957   1.61065
   D15       -3.10266  -0.00022   0.00044   0.00088   0.00149  -3.10117
   D16       -2.62331  -0.00011   0.00512   0.01857   0.02425  -2.59906
   D17       -1.03387  -0.00077  -0.00191   0.00688   0.00617  -1.02770
   D18       -0.46671  -0.00026   0.01257   0.01599   0.02840  -0.43832
   D19        1.12273  -0.00092   0.00555   0.00430   0.01032   1.13305
   D20        1.58271  -0.00075  -0.00141  -0.02265  -0.02303   1.55969
   D21        2.61787   0.00135   0.01030   0.09660   0.10578   2.72365
   D22       -0.31306  -0.00002   0.00535  -0.00066   0.00437  -0.30870
   D23       -0.04320  -0.00012  -0.00299  -0.01002  -0.01295  -0.05615
[...]
 0.0633145,-0.0911986,-0.0169094,-0.0364141,0.008182,-0.1117542,-0.0464
 712,-0.1382937,-0.5400299,-0.0684183,0.0566825,-0.2111248,-1.2742192,0
 .0440918,0.0663311,0.1279224,-0.5886511,0.3060456,-0.2993322,-0.010771
 1,-0.1746382,0.6941579,-0.040596,0.0205344,-0.1821004,0.3081802,0.7884
 971,0.2275363,-0.0223204,0.3338017,0.4543329,0.0171556,0.0660057,0.067
 3062,0.3279805,-0.0269026,-0.0390126,0.0153191,-0.043859,-0.0081519,-0
 .0670312,-0.0453327,-0.0982248,-0.1749082,-0.2191962,0.0502416,0.05532
 29,0.0838838,-0.0399636,-0.0264331,0.0224567,-0.0389945,0.037054,0.018
 4658,-0.0086038,-0.0091875,-0.0504901,-0.0970464,0.1044894,0.0073384,0
 .104822,-0.0184885,-1.0575174,-0.201164,0.1648996,-0.3384195,-0.751380
 2,-0.0043608,0.1858344,0.0646438,-0.5586301,0.3419295,0.1342869,-0.166
 2726,0.1665435,0.5451759,-0.1245513,-0.2734944,-0.281278,0.4353919|Pol
 ar=52.9582185,-0.194311,57.3746796,-4.8100636,-2.0592391,44.9761859|PG
 =C01 [X(C3H12O3)]|NImag=0||0.58712294,0.01192974,0.50405087,-0.0164575
 8,-0.04615681,0.55578950,-0.20887099,-0.03244570,0.12733830,0.21985082
 ,-0.04034741,-0.05723696,0.03487480,0.03261802,0.06521811,0.12342391,0
 .02733589,-0.15173752,-0.14163695,-0.02116352,0.16721261,-0.22765741,-
 0.03639168,-0.10512419,-0.01955522,-0.00275932,-0.01357710,0.23850278,
 -0.03315904,-0.05913921,-0.01941952,-0.00570775,0.00035879,-0.00199777
 ,0.04290516,0.06919490,-0.10393368,-0.01958763,-0.11693305,0.01687322,
 0.00417654,0.01270735,0.11845739,0.03366811,0.12581398,-0.06560437,0.0
 3863788,-0.03386192,0.00707000,-0.01941279,0.01596938,-0.00504747,0.02
 041850,-0.01912813,0.06087201,0.03910476,-0.18701180,0.11678218,0.0007
 0876,-0.00199387,0.00454182,-0.00116096,0.00696376,-0.00182907,-0.0458
 0408,0.21834905,-0.03334274,0.12113102,-0.15354802,-0.00586115,0.01414
 469,-0.01146116,-0.00218727,0.01235895,-0.00919389,0.03630553,-0.12374
 162,0.15749286,-0.08207299,0.01872370,0.02813977,-0.00016028,0.0295279
 1,0.01700295,0.01278383,-0.02247358,-0.01033793,0.00266630,0.00931018,
 0.00536359,0.36698781,-0.00891992,-0.19392668,-0.05653470,0.00455763,-
 0.00147364,-0.00592485,-0.00208179,-0.01864120,-0.01696700,0.00560572,
 -0.03797596,-0.02425839,0.02194692,0.31217112,0.01391804,-0.08296933,-
 0.12185186,0.00390800,-0.02871854,-0.01624927,0.00220157,-0.02609147,-
 0.01291795,0.00129774,0.00411939,0.01563101,-0.24270638,0.09250141,0.3
 2133866,-0.00017527,0.00357432,0.00049838,0.00180903,-0.00107660,-0.00
 202428,0.00047771,-0.00216451,-0.00236232,0.00005167,-0.00232569,-0.00
 019875,-0.27777894,-0.03413728,0.21146389,0.27141191,0.03018885,-0.002
 56248,-0.02814208,0.00040552,-0.00509113,-0.00306333,-0.00052864,0.000
 72758,-0.00011662,0.00089142,0.00047521,0.00016933,-0.06637420,-0.0554
 7946,0.04195253,0.03780695,0.07340301,0.01614416,-0.00200217,-0.015852
 18,-0.00094006,-0.00270160,0.00001833,0.00070803,0.00219536,0.00081764
 ,-0.00079490,0.00141218,0.00163405,0.19433620,0.01094272,-0.17755731,-
 0.20369959,-0.01522758,0.19783020,0.00025872,-0.00107280,-0.00122595,-
 0.00010051,0.00006986,0.00013453,0.00004927,-0.00000404,0.00012111,-0.
 00007580,0.00046601,0.00015226,-0.00319526,0.00376270,-0.00177183,0.00
 008428,-0.00041659,0.00102112,0.57708908,0.00066781,-0.00182713,-0.001
 84449,-0.00017789,0.00010411,0.00026834,0.00002883,0.00007991,0.000137
 13,-0.00016595,0.00079576,0.00017756,-0.00255566,0.00472198,-0.0005277
 5,0.00084118,-0.00120281,0.00102299,-0.05314828,0.50854200,-0.00016314
 ,-0.00013040,-0.00014580,0.00003211,-0.00002301,0.00001981,-0.00000640
 ,-0.00008905,-0.00005050,-0.00000131,0.00013052,-0.00000065,-0.0011114
 2,0.00089731,-0.00084044,0.00062685,0.00003954,0.00057628,-0.00889517,
 -0.01694990,0.56309526,0.00000390,-0.00001129,0.00004873,0.00000966,-0
 .00001561,-0.00001090,0.00000002,0.00002820,0.00000354,0.00000238,-0.0
 0000545,-0.00001918,0.00044168,-0.00032030,0.00032278,-0.00003957,-0.0
 0002399,-0.00008142,-0.21314448,0.13668407,0.00812528,0.22102555,-0.00
 011082,0.00050653,0.00049174,0.00002880,-0.00001916,-0.00004563,-0.000
 03646,-0.00003222,-0.00007605,0.00003065,-0.00019611,-0.00005178,0.001
 01024,-0.00149980,0.00062738,0.00016204,0.00016520,-0.00042689,0.12537
 101,-0.15208137,-0.00498970,-0.13928508,0.18225962,0.00003275,0.000040
 04,0.00005095,-0.00000455,0.00000618,-0.00000261,-0.00000171,0.0000185
 5,0.00000603,-0.00000053,-0.00002677,-0.00000410,0.00024553,-0.0002287
 7,0.00021863,-0.00008212,-0.00003396,-0.00007823,0.00620152,-0.0042672
 9,-0.05273134,-0.00750780,0.00976635,0.04873439,-0.00009561,0.00029321
 ,0.00026524,0.00004400,-0.00002143,-0.00003603,-0.00001714,-0.00001994
 ,-0.00001524,0.00001736,-0.00009528,-0.00002954,0.00044871,-0.00057004
 ,0.00008926,-0.00024284,0.00016461,-0.00012444,-0.14834621,-0.03567485
 ,0.11434606,-0.01409853,-0.00547670,0.01971296,0.15920311,-0.00011908,
 0.00024469,0.00028006,0.00007089,-0.00005508,-0.00005540,-0.00000810,-
 0.00000665,0.00000025,0.00002573,-0.00009111,-0.00004180,0.00080315,-0
 .00063037,-0.00010352,-0.00047847,0.00035242,-0.00010566,-0.03247759,-
 0.06434821,0.04358469,0.01209464,0.00758430,-0.01585548,0.05021333,0.0
 7733438,0.00006847,-0.00007839,-0.00009391,-0.00002455,0.00002626,0.00
 003121,-0.00000695,0.00000695,0.00000946,-0.00000906,0.00002196,0.0000
 1196,-0.00022509,0.00017641,0.00009129,0.00007603,-0.00016967,-0.00007
 044,0.11652259,0.04558828,-0.19360441,-0.00074568,-0.00018484,0.000077
 86,-0.12691411,-0.05031872,0.20023449,-0.00006316,0.00014077,0.0002107
 0,0.00000981,0.00000493,-0.00000993,-0.00000044,0.00001395,-0.00000940
 ,0.00002513,-0.00009848,-0.00002354,0.00036554,-0.00060368,0.00025091,
 0.00003199,-0.00002765,-0.00029679,-0.10903511,0.00470563,-0.10162257,
 -0.01033589,0.00153084,-0.02268446,0.01122641,-0.00014030,0.01859942,0
 .11464443,-0.00002927,0.00007181,-0.00004220,0.00000205,0.00000324,-0.
 00000898,0.00003037,0.00007798,0.00003936,0.00001948,-0.00002110,0.000
 02129,0.00033846,-0.00010041,0.00065659,-0.00023044,-0.00008994,-0.000
 24865,0.00787778,-0.05240843,0.01119954,0.00843233,0.00157341,0.018867
 77,0.00484828,0.00222042,0.00553022,0.00361429,0.05920489,0.00001359,0
 .00000226,-0.00000661,-0.00000559,-0.00000506,-0.00002030,0.00002934,0
 .00007592,0.00003719,0.00001372,-0.00003214,0.00000771,0.00055197,-0.0
 0027673,0.00043997,-0.00024994,0.00005754,-0.00017440,-0.10269866,0.00
 834687,-0.24546559,0.00187481,0.00090513,0.00266267,-0.01186753,0.0029
 5791,-0.02053972,0.11777756,-0.00182481,0.26229251,-0.00032432,-0.0011
 5128,-0.00401713,-0.00000935,-0.00004395,0.00015061,0.00027495,0.00054
 900,0.00054440,-0.00018845,0.00131417,0.00071352,-0.00033137,0.0105674
 0,-0.00147635,-0.00387989,0.00101365,0.00140507,-0.11800527,-0.0305979
 8,-0.00970113,0.01665903,0.02154161,0.00505729,-0.00828759,-0.02912903
 ,-0.00766355,-0.00635021,-0.02351917,-0.00454205,0.39790710,-0.0004915
 6,0.00415765,0.00560480,0.00041231,-0.00027202,-0.00050109,-0.00040233
 ,-0.00026612,-0.00053919,0.00029474,-0.00195092,-0.00076591,0.01151995
 ,-0.01620947,0.00394281,-0.00000302,0.00100329,-0.00277885,-0.07096475
 ,-0.20577352,-0.03375445,-0.01394338,-0.03560137,-0.00775658,-0.015231
 54,-0.02469172,-0.00089153,-0.01067144,-0.01387661,-0.01080305,-0.1187
 0379,0.51865302,-0.00052714,-0.00004372,-0.00185832,-0.00029026,0.0002
 4758,0.00016006,0.00023349,0.00043134,0.00008705,0.00001569,0.00039328
 ,0.00040666,-0.00255855,0.00311609,0.00548822,0.00194228,-0.00184807,-
 0.00098982,-0.01657363,-0.02811025,-0.07175627,-0.00111295,-0.00363458
 ,0.00121858,0.00632656,0.02012371,0.01342079,-0.01264454,-0.03261723,0
 .00106660,0.02962170,0.03769967,0.08108223,-0.00061184,0.00243637,0.00
 521341,0.00005798,0.00009261,-0.00031469,-0.00020363,-0.00107691,-0.00
 082404,0.00023511,-0.00184147,-0.00085433,-0.00568867,-0.00309762,-0.0
 0042668,0.00506419,-0.00365960,-0.00013401,0.01563559,-0.01667426,-0.0
 0100554,-0.00054203,-0.00509986,-0.00101355,-0.00042072,-0.00175768,0.
 00047645,-0.00065013,-0.00176416,-0.00126475,-0.27686879,0.21799593,-0
 .00467765,0.26966700,0.00181912,-0.00816134,-0.00685242,-0.00043461,0.
 00041977,0.00065808,0.00049263,0.00076951,0.00110597,-0.00042380,0.002
 65146,0.00083196,-0.00527985,0.00592148,-0.00343468,-0.00346443,-0.001
 11874,0.00708394,0.02241105,-0.03363258,-0.00170947,-0.00360258,-0.002
 68939,-0.00071421,0.00136977,0.00199160,0.00048385,0.00146517,0.002915
 74,0.00051713,0.17007117,-0.21539766,-0.00141654,-0.18675184,0.2439087
 2,0.00057242,0.00024362,0.00536861,0.00046665,-0.00038587,-0.00032723,
 -0.00040548,-0.00097755,-0.00047488,0.00016592,-0.00157588,-0.00089205
 ,0.00216992,-0.00240120,-0.01071310,-0.00062365,0.00535248,-0.00332146
 ,0.00747784,-0.00705004,-0.00081347,-0.00099997,-0.00210452,-0.0001036
 9,-0.00109072,0.00066960,0.00042055,0.00095089,-0.00076577,-0.00002530
 ,-0.01425683,0.00498965,-0.01741172,0.00176323,0.00583964,0.02908233,-
 0.00032250,0.00291001,0.00206962,0.00005563,-0.00023300,-0.00031823,-0
 .00038225,-0.00033395,-0.00031124,-0.00000754,-0.00046327,-0.00005545,
 0.00426885,-0.00146384,-0.00216893,-0.00810484,-0.00013700,0.00070277,
 -0.00041170,-0.00280206,-0.00075586,-0.00011064,0.00032911,0.00006794,
 0.00042985,0.00074301,-0.00009478,-0.00000068,0.00011931,0.00016506,0.
 00254715,0.00449575,-0.00424405,-0.00108212,-0.00017170,0.00132310,0.5
 0454694,0.00043756,0.00300849,0.00157347,0.00002891,-0.00053067,-0.000
 40871,-0.00034368,-0.00042201,-0.00047762,0.00007261,-0.00051974,-0.00
 004513,0.00520126,-0.00252436,-0.00450679,-0.00789635,0.00383144,0.004
 72979,-0.00021501,-0.00099289,-0.00026521,-0.00004910,0.00009725,0.000
 06083,0.00021426,0.00030487,-0.00008831,-0.00001692,-0.00000502,0.0000
 0065,0.00096060,0.00152759,-0.00083997,-0.00016264,-0.00041344,0.00096
 911,-0.03962085,0.56703638,0.00091937,0.00101830,0.00122968,-0.0001764
 4,-0.00017713,-0.00023940,-0.00027929,-0.00034483,-0.00052596,-0.00014
 799,-0.00009758,-0.00014207,0.00182948,-0.00122139,-0.00190265,-0.0021
 1827,0.00136774,0.00121541,-0.00020766,-0.00051337,-0.00035829,-0.0000
 1083,0.00002022,0.00003102,0.00013656,0.00018151,-0.00000591,-0.000056
 22,-0.00005350,0.00004570,0.00076879,0.00147496,-0.00321584,-0.0001671
 5,0.00049618,0.00076955,-0.01610830,-0.03130406,0.57490594,-0.00025168
 ,-0.00035477,-0.00040395,0.00007541,0.00007467,0.00008597,-0.00000087,
 0.00017740,0.00026874,0.00002396,0.00005975,0.00003325,-0.00016537,0.0
 0037588,0.00062028,0.00088567,-0.00053359,-0.00101546,0.00002817,0.000
 18267,-0.00000817,0.00001303,-0.00000191,-0.00000041,-0.00003074,-0.00
 005512,0.00003067,0.00004013,0.00002672,0.00000787,-0.00028627,-0.0000
 7512,0.00063895,0.00003706,-0.00026449,-0.00021677,-0.05246711,0.00255
 520,0.00710243,0.05905270,-0.00007066,-0.00029998,-0.00021356,0.000000
 79,0.00003183,0.00004756,0.00005850,0.00012885,0.00003575,0.00004235,0
 .00002399,0.00003089,-0.00048366,0.00010062,0.00055834,0.00105142,-0.0
 0023202,-0.00062574,0.00004009,-0.00007833,-0.00009715,-0.00000159,-0.
 00000259,-0.00001477,0.00000489,0.00001944,0.00003011,0.00007308,0.000
 06664,0.00004197,0.00004930,0.00016921,0.00068893,-0.00012883,0.000044
 16,-0.00027228,0.00308822,-0.07291720,-0.06402136,0.00590329,0.0744221
 4,-0.00030897,-0.00063762,-0.00065737,0.00011603,0.00009882,0.00010301
 ,0.00020599,0.00012999,0.00030164,0.00001042,0.00007316,0.00003651,-0.
 00077492,0.00054866,0.00074031,0.00107462,-0.00050242,-0.00066078,-0.0
 0000348,0.00014080,0.00007316,0.00000632,-0.00000558,-0.00001440,-0.00
 004320,-0.00007539,0.00002181,0.00004795,0.00003475,0.00000893,-0.0002
 5720,-0.00041539,0.00078892,0.00010760,-0.00015841,-0.00025741,0.00392
 621,-0.06578528,-0.27864089,0.00390798,0.07856367,0.30035338,-0.000075
 36,-0.00088475,-0.00038568,-0.00007129,0.00016959,0.00014057,0.0000584
 5,0.00011239,0.00007733,-0.00000446,0.00014659,0.00000681,-0.00164599,
 0.00062493,0.00144721,0.00300300,-0.00115572,-0.00152253,0.00006542,0.
 00056985,0.00012831,0.00002878,-0.00012626,0.00000806,-0.00005994,-0.0
 0013141,0.00000643,-0.00001445,-0.00000729,-0.00001757,-0.00008795,-0.
 00105298,0.00073103,0.00005710,0.00045484,-0.00048463,-0.20244448,0.11
 409135,0.04009029,0.00215531,0.00231377,0.00102079,0.23534382,-0.00016
 010,-0.00043063,-0.00022584,0.00003492,0.00011539,0.00005759,0.0000702
 5,0.00005683,0.00013613,-0.00003957,0.00008283,0.00000446,-0.00074854,
 0.00041090,0.00075080,0.00104302,-0.00064858,-0.00082813,-0.00001923,-
 0.00002139,0.00000834,-0.00000069,-0.00001065,0.00000902,0.00000406,-0
 .00000585,-0.00000215,0.00000221,0.00001464,0.00000620,0.00009108,-0.0
 0012972,0.00007516,-0.00001751,0.00005317,-0.00012722,0.11809150,-0.13
 924649,-0.02822231,0.00688688,-0.00406695,-0.00046589,-0.12073491,0.14
 165985,-0.00021407,-0.00029900,-0.00033761,0.00007645,0.00004343,0.000
 06375,0.00008508,0.00008837,0.00016318,0.00002674,0.00002754,0.0000264
 3,-0.00039502,0.00028509,0.00039128,0.00047726,-0.00026466,-0.00041039
 ,0.00005123,0.00006941,0.00002567,0.00000609,0.00002081,0.00000359,-0.
 00001830,-0.00001772,0.00000339,-0.00001184,0.00000047,-0.00001039,-0.
 00017298,0.00005180,0.00009662,-0.00000706,-0.00015572,-0.00004168,0.0
 4056481,-0.02951916,-0.06410992,0.02489355,-0.01965366,-0.00551802,-0.
 04037380,0.03265946,0.05955476,0.00001262,-0.00023156,-0.00011417,0.00
 001157,0.00004700,0.00000521,0.00002509,0.00001281,0.00004937,-0.00005
 590,0.00008572,0.00000778,-0.00030929,0.00036762,0.00004747,0.00048312
 ,-0.00044626,0.00012130,0.00009838,0.00049369,0.00015456,0.00001135,-0
 .00005227,-0.00000819,-0.00007123,-0.00012654,0.00000371,-0.00000216,-
 0.00002367,-0.00005482,-0.00055444,-0.00089301,0.00130962,0.00027693,-
 0.00020501,-0.00019876,-0.04926336,0.01110623,-0.00582800,0.00107651,-
 0.00010412,0.00192002,0.00194141,0.01994305,-0.01635878,0.05850203,0.0
 0002651,-0.00033857,-0.00016030,-0.00001242,0.00004724,0.00002944,0.00
 001716,0.00003905,0.00003349,-0.00002288,0.00009591,0.00000282,-0.0004
 9487,0.00034945,0.00026532,0.00081858,-0.00032384,-0.00022591,0.000139
 99,0.00045865,0.00014619,0.00001427,-0.00002136,-0.00001292,-0.0000848
 0,-0.00011591,0.00001749,-0.00001268,-0.00002779,-0.00004700,-0.000503
 89,-0.00069511,0.00089052,0.00022041,-0.00015635,-0.00018474,0.0030451
 2,-0.21631751,0.12584035,0.00104267,0.00988668,-0.00593210,0.00139316,
 -0.01356013,0.01210050,0.00641735,0.23849724,-0.00007054,0.00019140,0.
 00002819,-0.00001194,-0.00004640,0.00000181,-0.00001892,0.00005186,-0.
 00004280,0.00009104,-0.00006533,0.00004013,0.00022028,-0.00024062,-0.0
 0003651,-0.00020498,0.00024154,0.00002063,-0.00001800,-0.00009078,0.00
 001818,-0.00000289,0.00000130,-0.00000140,0.00001151,0.00001262,-0.000
 01029,0.00002285,0.00003254,0.00001213,0.00003404,-0.00002872,0.000350
 17,-0.00012399,0.00000602,-0.00007065,-0.00003324,0.13128338,-0.151819
 32,-0.00127667,0.02498150,-0.01725301,0.00006909,-0.00683062,0.0051376
 8,0.00226560,-0.13943614,0.15479579,-0.00131651,-0.00739626,-0.0032270
 2,-0.00024881,0.00146400,0.00113929,0.00081117,0.00091768,0.00081663,-
 0.00012840,0.00114375,0.00012363,-0.01659367,0.00640940,0.01226800,0.0
 0682991,-0.00331446,-0.00239952,0.00085863,0.00312393,0.00106512,0.000
 10435,-0.00058284,0.00003977,-0.00041765,-0.00069700,0.00000355,-0.000
 07207,0.00006669,-0.00023841,0.00039588,-0.00855383,0.00745622,0.00012
 502,0.00214069,-0.00266325,-0.18792232,-0.05330755,-0.04662436,-0.0114
 8298,-0.01227288,-0.01067210,-0.03890994,-0.02435426,-0.00967648,-0.00
 776836,-0.00977972,0.00060435,0.29941339,-0.00094295,-0.00019782,-0.00
 013601,0.00017675,0.00012399,0.00003410,0.00007756,0.00011462,0.000507
 79,-0.00019528,0.00038232,0.00010197,0.00275437,0.00589727,-0.00116567
 ,-0.00124060,-0.01002795,-0.00184501,0.00079043,0.00483201,0.00232192,
 0.00015924,-0.00022043,-0.00016452,-0.00085315,-0.00153015,0.00003492,
 -0.00006450,-0.00025847,-0.00052790,-0.00871866,-0.00779827,0.01194314
 ,0.00213981,-0.00414805,-0.00025448,-0.08147356,-0.12398470,-0.0148510
 9,-0.01849213,-0.00848706,-0.00707590,0.00219349,0.01408165,0.00457396
 ,-0.03442377,-0.01872683,-0.00846158,0.13666536,0.41824689,-0.00041522
 ,0.00234653,0.00107610,0.00008901,-0.00030680,-0.00022854,-0.00030175,
 0.00002556,0.00009484,0.00022320,-0.00050948,-0.00007530,0.00811123,-0
 .00266873,0.00015107,-0.00190554,0.00093450,-0.00664653,-0.00001621,-0
 .00384057,-0.00398174,-0.00013267,0.00050012,0.00001846,0.00077437,0.0
 0164417,0.00033913,0.00064948,0.00057160,0.00054295,0.00606528,0.01167
 943,-0.00398682,-0.00157613,0.00041357,0.00014016,-0.02518926,0.005925
 21,-0.08541136,-0.03321728,-0.01800585,0.00085474,0.00085765,0.0027308
 4,0.00524664,0.01982091,0.00965102,0.00851937,0.04398329,-0.20380622,0
 .27900260,0.00004384,0.00129409,0.00103345,0.00002253,-0.00015851,-0.0
 0012432,-0.00011885,-0.00019537,-0.00028976,0.00014847,-0.00054502,-0.
 00013441,-0.00002088,-0.00302372,0.00071503,0.00008887,0.00614672,-0.0
 0342993,-0.00185321,-0.00550072,-0.00120757,-0.00002861,0.00076790,-0.
 00006252,0.00071876,0.00116956,-0.00010355,0.00018087,0.00019824,0.000
 50537,-0.00261020,0.00626806,-0.00564676,-0.00508804,0.00037387,0.0060
 5009,-0.00932888,-0.03305589,0.02087761,0.00129706,0.00043605,-0.00028
 406,0.00066054,-0.00009218,0.00104713,-0.00441427,-0.00222395,-0.00155
 759,-0.04367764,0.00144759,-0.01782036,0.06397961,0.00017646,-0.000907
 43,0.00012088,-0.00026698,0.00025005,0.00019644,0.00003248,-0.00000435
 ,-0.00024734,0.00002526,-0.00005966,-0.00007032,-0.00272578,-0.0011114
 8,0.00214317,0.00771989,-0.00318121,-0.00037079,-0.00261062,-0.0071677
 5,-0.00031971,-0.00015369,0.00018813,0.00030654,0.00091533,0.00142294,
 -0.00018286,0.00008478,0.00063901,0.00060512,0.00620976,-0.00284828,-0
 .00709906,-0.00085276,0.00704193,-0.00196454,-0.00612279,-0.01793196,0
 .01040734,0.00249200,0.00119059,0.00146415,0.00202336,0.00164512,-0.00
 001093,-0.00196726,0.00090917,-0.00160197,-0.03167269,-0.26829899,0.19
 271511,0.02669328,0.28822418,0.00034037,-0.00040400,-0.00052077,0.0000
 5173,-0.00009038,-0.00005191,-0.00001182,-0.00013080,0.00010068,-0.000
 17555,0.00037585,0.00002993,0.00013841,0.00225469,-0.00242135,-0.00268
 986,-0.00074680,0.00364900,-0.00027162,0.00744307,0.00594014,0.0002367
 4,-0.00081347,-0.00008641,-0.00152342,-0.00288083,-0.00033727,-0.00115
 047,-0.00139301,-0.00087405,-0.00227350,-0.00720838,-0.00494713,0.0048
 2888,-0.00299485,-0.00132854,0.00045985,-0.01130220,0.00817430,-0.0014
 5098,-0.00207437,-0.00028052,-0.00179937,0.00026415,-0.00028498,-0.003
 14284,-0.00297803,0.00030993,0.00800129,0.21877060,-0.19565576,0.00043
 216,-0.19609125,0.18858470||0.00000221,0.00000399,0.00000247,0.0000018
 3,0.00000030,0.00000166,0.00000190,-0.00000042,0.00000088,0.00000165,0
 .00000088,0.00000184,0.00000120,0.00000022,0.00000016,-0.00000222,0.00
 000082,0.00000336,-0.00000447,-0.00000251,-0.00000291,-0.00000069,0.00
 000087,-0.00000105,-0.00000020,0.00000120,0.00000023,-0.00000146,0.000
 00086,0.00000030,0.00000174,0.00000370,-0.00000059,0.00000003,-0.00000
 295,-0.00000285,0.00000317,-0.00000033,-0.00000108,0.00000040,-0.00000
 058,-0.00000070,-0.00000079,-0.00000143,-0.00000138,-0.00000055,-0.000
 00119,-0.00000141,-0.00000658,0.00000388,-0.00000215,0.00000285,-0.000
 00730,0.00000321|||@


 THE TRULY SUCCESSFUL PERFORMANCE OF RESEARCHES IN
 INORGANIC CHEMISTRY IS POSSIBLE ONLY TO ONE WHO IS NOT
 ONLY A THEORETICAL CHEMIST, BUT ALSO AN ACCOMPLISHED
 ANALYST AND, MOREOVER, NOT MERELY A PRACTICALLY TRAINED,
 MECHANICAL WORKER, BUT A THINKING CREATIVE ARTIST.
   --  CLEMENS WINKLER, BER. 33, 1697(1900)
 Job cpu time:  0 days  0 hours  9 minutes  9.0 seconds.
 File lengths (MBytes):  RWF=     43 Int=      0 D2E=      0 Chk=      6 Scr=      1
 Normal termination of Gaussian 03 at Mon Oct 02 13:04:02 2017.
