 Entering Link 1 = C:\G03W\l1.exe PID=      3592.
  
 Copyright (c) 1988,1990,1992,1993,1995,1998,2003,2004, Gaussian, Inc.
                  All Rights Reserved.
  
 This is the Gaussian(R) 03 program.  It is based on the
 the Gaussian(R) 98 system (copyright 1998, Gaussian, Inc.),
 the Gaussian(R) 94 system (copyright 1995, Gaussian, Inc.),
 the Gaussian 92(TM) system (copyright 1992, Gaussian, Inc.),
 the Gaussian 90(TM) system (copyright 1990, Gaussian, Inc.),
 the Gaussian 88(TM) system (copyright 1988, Gaussian, Inc.),
 the Gaussian 86(TM) system (copyright 1986, Carnegie Mellon
 University), and the Gaussian 82(TM) system (copyright 1983,
 Carnegie Mellon University). Gaussian is a federally registered
 trademark of Gaussian, Inc.
  
 This software contains proprietary and confidential information,
 including trade secrets, belonging to Gaussian, Inc.
  
 This software is provided under written license and may be
 used, copied, transmitted, or stored only in accord with that
 written license.
  
 The following legend is applicable only to US Government
 contracts under FAR:
  
                    RESTRICTED RIGHTS LEGEND
  
 Use, reproduction and disclosure by the US Government is
 subject to restrictions as set forth in subparagraphs (a)
 and (c) of the Commercial Computer Software - Restricted
 Rights clause in FAR 52.227-19.
  
 Gaussian, Inc.
 340 Quinnipiac St., Bldg. 40, Wallingford CT 06492
  
  
 ---------------------------------------------------------------
 Warning -- This program may not be used in any manner that
 competes with the business of Gaussian, Inc. or will provide
 assistance to any competitor of Gaussian, Inc.  The licensee
 of this program is prohibited from giving any competitor of
 Gaussian, Inc. access to this program.  By using this program,
 the user acknowledges that Gaussian, Inc. is engaged in the
 business of creating and licensing software in the field of
 computational chemistry and represents and warrants to the
 licensee that it is not a competitor of Gaussian, Inc. and that
 it will not use this program in any manner prohibited above.
 ---------------------------------------------------------------
  

 Cite this work as:
 Gaussian 03, Revision C.02,
 M. J. Frisch, G. W. Trucks, H. B. Schlegel, G. E. Scuseria, 
 M. A. Robb, J. R. Cheeseman, J. A. Montgomery, Jr., T. Vreven, 
 K. N. Kudin, J. C. Burant, J. M. Millam, S. S. Iyengar, J. Tomasi, 
 V. Barone, B. Mennucci, M. Cossi, G. Scalmani, N. Rega, 
 G. A. Petersson, H. Nakatsuji, M. Hada, M. Ehara, K. Toyota, 
 R. Fukuda, J. Hasegawa, M. Ishida, T. Nakajima, Y. Honda, O. Kitao, 
 H. Nakai, M. Klene, X. Li, J. E. Knox, H. P. Hratchian, J. B. Cross, 
 C. Adamo, J. Jaramillo, R. Gomperts, R. E. Stratmann, O. Yazyev, 
 A. J. Austin, R. Cammi, C. Pomelli, J. W. Ochterski, P. Y. Ayala, 
 K. Morokuma, G. A. Voth, P. Salvador, J. J. Dannenberg, 
 V. G. Zakrzewski, S. Dapprich, A. D. Daniels, M. C. Strain, 
 O. Farkas, D. K. Malick, A. D. Rabuck, K. Raghavachari, 
 J. B. Foresman, J. V. Ortiz, Q. Cui, A. G. Baboul, S. Clifford, 
 J. Cioslowski, B. B. Stefanov, G. Liu, A. Liashenko, P. Piskorz, 
 I. Komaromi, R. L. Martin, D. J. Fox, T. Keith, M. A. Al-Laham, 
 C. Y. Peng, A. Nanayakkara, M. Challacombe, P. M. W. Gill, 
 B. Johnson, W. Chen, M. W. Wong, C. Gonzalez, and J. A. Pople, 
 Gaussian, Inc., Wallingford CT, 2004.
 
 ******************************************
 Gaussian 03:  IA32W-G03RevC.02 12-Jun-2004
                02-Oct-2017 
 ******************************************
 %mem=300mb
 %chk=phenol.chk
 ------------------------------
 #B3LYP 6-31G** SCF=direct TEST
 ------------------------------
 1/38=1/1;
 2/17=6,18=5,40=1/2;
 3/5=1,6=6,7=101,11=2,16=1,25=1,30=1,74=-5/1,2,3;
 4//1;
 5/5=2,32=1,38=5/2;
 6/7=2,8=2,9=2,10=2,28=1/1;
 99/5=1,9=1/99;
 ------
 phenol
 ------
 Symbolic Z-matrix:
 Charge =  0 Multiplicity = 1
 6                    -0.56588   0.75042  -1.50298 
 6                    -1.771     0.75042  -0.78047 
 6                     0.63924   0.75042  -0.78047 
 6                    -1.77132   0.75042   0.61338 
 6                     0.63957   0.75042   0.61338 
 6                    -0.56588   0.75042   1.31703 
 1                    -2.70937   0.75042  -1.31512 
 1                     1.57762   0.75042  -1.31512 
 1                    -2.70997   0.75042   1.14756 
 1                     1.57821   0.75042   1.14756 
 1                    -0.56588   0.75042   2.39703 
 8                    -0.56588   0.75042  -2.94298 
 1                     0.39091   0.7575   -3.02106 
 
                          Input orientation:                          
 ---------------------------------------------------------------------
 Center     Atomic     Atomic              Coordinates (Angstroms)
 Number     Number      Type              X           Y           Z
 ---------------------------------------------------------------------
    1          6             0       -0.565878    0.750417   -1.502976
    2          6             0       -1.770998    0.750417   -0.780468
    3          6             0        0.639241    0.750417   -0.780468
    4          6             0       -1.771321    0.750417    0.613385
    5          6             0        0.639565    0.750417    0.613385
    6          6             0       -0.565878    0.750417    1.317032
    7          1             0       -2.709374    0.750417   -1.315117
    8          1             0        1.577617    0.750417   -1.315117
    9          1             0       -2.709966    0.750417    1.147563
   10          1             0        1.578209    0.750417    1.147563
   11          1             0       -0.565878    0.750417    2.397032
   12          8             0       -0.565878    0.750417   -2.942976
   13          1             0        0.390914    0.757498   -3.021064
 ---------------------------------------------------------------------
                    Distance matrix (angstroms):
                    1          2          3          4          5
     1  C    0.000000
     2  C    1.405109   0.000000
     3  C    1.405109   2.410239   0.000000
     4  C    2.435585   1.393852   2.784535   0.000000
     5  C    2.435585   2.784535   1.393852   2.410886   0.000000
     6  C    2.820008   2.419053   2.419053   1.395784   1.395784
     7  H    2.151712   1.080000   3.391028   2.144542   3.864519
     8  H    2.151712   3.391028   1.080000   3.864519   2.144542
     9  H    3.409175   2.144520   3.864517   1.080000   3.391858
    10  H    3.409175   3.864517   2.144520   3.391858   1.080000
    11  H    3.900008   3.398355   3.398355   2.152787   2.152787
    12  O    1.440000   2.475632   2.475632   3.755103   3.755103
    13  H    1.794462   3.113549   2.254326   4.229010   3.642951
                    6          7          8          9         10
     6  C    0.000000
     7  H    3.394523   0.000000
     8  H    3.394523   4.286991   0.000000
     9  H    2.150774   2.462681   4.944508   0.000000
    10  H    2.150774   4.944508   2.462681   4.288175   0.000000
    11  H    1.080000   4.286564   4.286564   2.481589   2.481589
    12  O    4.260008   2.691560   2.691560   4.618401   4.618401
    13  H    4.442362   3.538656   2.078116   5.195475   4.334417
                   11         12         13
    11  H    0.000000
    12  O    5.340008   0.000000
    13  H    5.501933   0.960000   0.000000
 Stoichiometry    C6H6O
 Framework group  C1[X(C6H6O)]
 Deg. of freedom    33
 Full point group                 C1      NOp   1
 Largest Abelian subgroup         C1      NOp   1
 Largest concise Abelian subgroup C1      NOp   1
                         Standard orientation:                         
 ---------------------------------------------------------------------
 Center     Atomic     Atomic              Coordinates (Angstroms)
 Number     Number      Type              X           Y           Z
 ---------------------------------------------------------------------
    1          6             0       -0.948885   -0.058658   -0.000287
    2          6             0       -0.176872   -1.232680   -0.000035
    3          6             0       -0.277132    1.175473   -0.000314
    4          6             0        1.215787   -1.175022    0.000181
    5          6             0        1.115500    1.233777   -0.000098
    6          6             0        1.868682    0.058647    0.000151
    7          1             0       -0.672025   -2.192484   -0.000010
    8          1             0       -0.850353    2.090797   -0.000506
    9          1             0        1.788549   -2.090634    0.000373
   10          1             0        1.610172    2.193830   -0.000124
   11          1             0        2.947747    0.103573    0.000319
   12          8             0       -2.387639   -0.118558   -0.000511
   13          1             0       -2.505460    0.834159    0.006447
 ---------------------------------------------------------------------
 Rotational constants (GHZ):      5.6707944      2.5274784      1.7482725
 Standard basis: 6-31G(d,p) (6D, 7F)
 There are   135 symmetry adapted basis functions of A   symmetry.
 Integral buffers will be    262144 words long.
 Raffenetti 2 integral format.
 Two-electron integral symmetry is turned on.
   135 basis functions,   238 primitive gaussians,   135 cartesian basis functions
    25 alpha electrons       25 beta electrons
       nuclear repulsion energy       268.9630046753 Hartrees.
 NAtoms=   13 NActive=   13 NUniq=   13 SFac= 1.00D+00 NAtFMM=   60 Big=F
 One-electron integrals computed using PRISM.
 NBasis=   135 RedAO= T  NBF=   135
 NBsUse=   135 1.00D-06 NBFU=   135
 Harris functional with IExCor=  402 diagonalized for initial guess.
 ExpMin= 1.61D-01 ExpMax= 5.48D+03 ExpMxC= 8.25D+02 IAcc=1 IRadAn=         1 AccDes= 1.00D-06
 HarFok:  IExCor= 402 AccDes= 1.00D-06 IRadAn=         1 IDoV=1
 ScaDFX=  1.000000  1.000000  1.000000  1.000000
 Initial guess orbital symmetries:
       Occupied  (A) (A) (A) (A) (A) (A) (A) (A) (A) (A) (A) (A)
                 (A) (A) (A) (A) (A) (A) (A) (A) (A) (A) (A) (A)
                 (A)
       Virtual   (A) (A) (A) (A) (A) (A) (A) (A) (A) (A) (A) (A)
                 (A) (A) (A) (A) (A) (A) (A) (A) (A) (A) (A) (A)
                 (A) (A) (A) (A) (A) (A) (A) (A) (A) (A) (A) (A)
                 (A) (A) (A) (A) (A) (A) (A) (A) (A) (A) (A) (A)
                 (A) (A) (A) (A) (A) (A) (A) (A) (A) (A) (A) (A)
                 (A) (A) (A) (A) (A) (A) (A) (A) (A) (A) (A) (A)
                 (A) (A) (A) (A) (A) (A) (A) (A) (A) (A) (A) (A)
                 (A) (A) (A) (A) (A) (A) (A) (A) (A) (A) (A) (A)
                 (A) (A) (A) (A) (A) (A) (A) (A) (A) (A) (A) (A)
                 (A) (A)
 The electronic state of the initial guess is 1-A.
 Warning!  Cutoffs for single-point calculations used.
 Requested convergence on RMS density matrix=1.00D-04 within 128 cycles.
 Requested convergence on MAX density matrix=1.00D-02.
 Requested convergence on             energy=5.00D-05.
 No special actions if energy rises.
 SCF Done:  E(RB+HF-LYP) =  -307.469679393     A.U. after    6 cycles
             Convg  =    0.2247D-04             -V/T =  2.0097
             S**2   =   0.0000

 **********************************************************************

            Population analysis using the SCF density.

 **********************************************************************

 Orbital symmetries:
       Occupied  (A) (A) (A) (A) (A) (A) (A) (A) (A) (A) (A) (A)
                 (A) (A) (A) (A) (A) (A) (A) (A) (A) (A) (A) (A)
                 (A)
       Virtual   (A) (A) (A) (A) (A) (A) (A) (A) (A) (A) (A) (A)
                 (A) (A) (A) (A) (A) (A) (A) (A) (A) (A) (A) (A)
                 (A) (A) (A) (A) (A) (A) (A) (A) (A) (A) (A) (A)
                 (A) (A) (A) (A) (A) (A) (A) (A) (A) (A) (A) (A)
                 (A) (A) (A) (A) (A) (A) (A) (A) (A) (A) (A) (A)
                 (A) (A) (A) (A) (A) (A) (A) (A) (A) (A) (A) (A)
                 (A) (A) (A) (A) (A) (A) (A) (A) (A) (A) (A) (A)
                 (A) (A) (A) (A) (A) (A) (A) (A) (A) (A) (A) (A)
                 (A) (A) (A) (A) (A) (A) (A) (A) (A) (A) (A) (A)
                 (A) (A)
 The electronic state is 1-A.
 Alpha  occ. eigenvalues --  -19.17753 -10.25365 -10.19583 -10.19527 -10.19313
 Alpha  occ. eigenvalues --  -10.18895 -10.18661  -1.04318  -0.84975  -0.74943
 Alpha  occ. eigenvalues --   -0.73678  -0.61769  -0.59780  -0.52744  -0.49908
 Alpha  occ. eigenvalues --   -0.46314  -0.43643  -0.42437  -0.39928  -0.39464
 Alpha  occ. eigenvalues --   -0.36118  -0.34304  -0.33130  -0.25412  -0.22716
 Alpha virt. eigenvalues --   -0.00412   0.00749   0.07603   0.08950   0.14320
 Alpha virt. eigenvalues --    0.15131   0.16124   0.18754   0.18931   0.20876
 Alpha virt. eigenvalues --    0.30078   0.30578   0.33158   0.33718   0.47954
 Alpha virt. eigenvalues --    0.52036   0.52495   0.54722   0.56008   0.58998
 Alpha virt. eigenvalues --    0.59464   0.60057   0.60167   0.61269   0.61679
 Alpha virt. eigenvalues --    0.63833   0.66006   0.67122   0.73368   0.75321
 Alpha virt. eigenvalues --    0.81511   0.82018   0.83490   0.84020   0.88949
 Alpha virt. eigenvalues --    0.91229   0.92299   0.94703   0.95632   0.99444
 Alpha virt. eigenvalues --    1.04125   1.09013   1.10576   1.16144   1.17495
 Alpha virt. eigenvalues --    1.19757   1.24626   1.30312   1.35844   1.38133
 Alpha virt. eigenvalues --    1.39882   1.41194   1.41869   1.43557   1.57248
 Alpha virt. eigenvalues --    1.66572   1.75155   1.76837   1.79059   1.85265
 Alpha virt. eigenvalues --    1.86984   1.90354   1.92869   1.93656   1.96431
 Alpha virt. eigenvalues --    1.96761   2.00257   2.00349   2.05751   2.15555
 Alpha virt. eigenvalues --    2.25723   2.27419   2.32245   2.32604   2.36940
 Alpha virt. eigenvalues --    2.37320   2.39150   2.41105   2.41904   2.44386
 Alpha virt. eigenvalues --    2.46790   2.50334   2.51508   2.55933   2.59670
 Alpha virt. eigenvalues --    2.60815   2.61793   2.68932   2.70700   2.76137
 Alpha virt. eigenvalues --    2.76693   2.81632   2.91336   3.05981   3.06885
 Alpha virt. eigenvalues --    3.18676   3.24860   3.25694   3.37642   3.40251
 Alpha virt. eigenvalues --    3.50107   3.52415   3.89856   4.01738   4.12686
 Alpha virt. eigenvalues --    4.15324   4.23434   4.43105   4.47383   4.83639
          Condensed to atoms (all electrons):
              1          2          3          4          5          6
     1  C    4.602852   0.541272   0.496410  -0.019400  -0.011009  -0.039521
     2  C    0.541272   4.858536  -0.057739   0.540117  -0.038730  -0.038245
     3  C    0.496410  -0.057739   5.004844  -0.042314   0.503690  -0.038654
     4  C   -0.019400   0.540117  -0.042314   4.800541  -0.030872   0.542955
     5  C   -0.011009  -0.038730   0.503690  -0.030872   4.809128   0.551469
     6  C   -0.039521  -0.038245  -0.038654   0.542955   0.551469   4.816086
     7  H   -0.039605   0.363250   0.006463  -0.043430   0.000157   0.005399
     8  H   -0.052075   0.005187   0.356790   0.000549  -0.033657   0.004873
     9  H    0.004495  -0.038995   0.000619   0.370067   0.004889  -0.042349
    10  H    0.003674   0.000707  -0.037155   0.004674   0.367200  -0.039983
    11  H    0.000808   0.004688   0.005150  -0.041433  -0.041676   0.369582
    12  O    0.250168  -0.042881  -0.055077   0.002763   0.003932   0.000043
    13  H   -0.042782   0.005704  -0.004963  -0.000197   0.000729  -0.000027
              7          8          9         10         11         12
     1  C   -0.039605  -0.052075   0.004495   0.003674   0.000808   0.250168
     2  C    0.363250   0.005187  -0.038995   0.000707   0.004688  -0.042881
     3  C    0.006463   0.356790   0.000619  -0.037155   0.005150  -0.055077
     4  C   -0.043430   0.000549   0.370067   0.004674  -0.041433   0.002763
     5  C    0.000157  -0.033657   0.004889   0.367200  -0.041676   0.003932
     6  C    0.005399   0.004873  -0.042349  -0.039983   0.369582   0.000043
     7  H    0.621814  -0.000191  -0.007273   0.000015  -0.000179  -0.002208
     8  H   -0.000191   0.645800   0.000015  -0.007012  -0.000190  -0.007033
     9  H   -0.007273   0.000015   0.624058  -0.000210  -0.006012  -0.000043
    10  H    0.000015  -0.007012  -0.000210   0.624184  -0.006042  -0.000042
    11  H   -0.000179  -0.000190  -0.006012  -0.006042   0.631073   0.000002
    12  O   -0.002208  -0.007033  -0.000043  -0.000042   0.000002   8.112713
    13  H   -0.000255   0.009023   0.000007  -0.000019  -0.000001   0.295062
             13
     1  C   -0.042782
     2  C    0.005704
     3  C   -0.004963
     4  C   -0.000197
     5  C    0.000729
     6  C   -0.000027
     7  H   -0.000255
     8  H    0.009023
     9  H    0.000007
    10  H   -0.000019
    11  H   -0.000001
    12  O    0.295062
    13  H    0.422136
 Mulliken atomic charges:
              1
     1  C    0.304712
     2  C   -0.102870
     3  C   -0.138064
     4  C   -0.084020
     5  C   -0.085251
     6  C   -0.091629
     7  H    0.096042
     8  H    0.077921
     9  H    0.090733
    10  H    0.090009
    11  H    0.084230
    12  O   -0.557398
    13  H    0.315584
 Sum of Mulliken charges=   0.00000
 Atomic charges with hydrogens summed into heavy atoms:
              1
     1  C    0.304712
     2  C   -0.006827
     3  C   -0.060143
     4  C    0.006712
     5  C    0.004758
     6  C   -0.007399
     7  H    0.000000
     8  H    0.000000
     9  H    0.000000
    10  H    0.000000
    11  H    0.000000
    12  O   -0.241814
    13  H    0.000000
 Sum of Mulliken charges=   0.00000
 Electronic spatial extent (au):  <R**2>=   676.4961
 Charge=     0.0000 electrons
 Dipole moment (field-independent basis, Debye):
    X=     0.7487    Y=     1.3034    Z=     0.0106  Tot=     1.5032
 Quadrupole moment (field-independent basis, Debye-Ang):
   XX=   -39.1775   YY=   -34.8715   ZZ=   -43.6977
   XY=    -4.0916   XZ=    -0.0294   YZ=     0.0118
 Traceless Quadrupole moment (field-independent basis, Debye-Ang):
   XX=     0.0714   YY=     4.3774   ZZ=    -4.4488
   XY=    -4.0916   XZ=    -0.0294   YZ=     0.0118
 Octapole moment (field-independent basis, Debye-Ang**2):
  XXX=     1.2521  YYY=     0.2509  ZZZ=     0.0047  XYY=    -4.8230
  XXY=    10.9884  XXZ=     0.0825  XZZ=    -5.1846  YZZ=    -0.0307
  YYZ=     0.0073  XYZ=    -0.0330
 Hexadecapole moment (field-independent basis, Debye-Ang**3):
 XXXX=  -517.5338 YYYY=  -270.6213 ZZZZ=   -43.2188 XXXY=   -30.3443
 XXXZ=    -0.2151 YYYX=    -2.7923 YYYZ=     0.0090 ZZZX=    -0.0152
 ZZZY=     0.0081 XXYY=  -119.9237 XXZZ=  -102.1386 YYZZ=   -61.7526
 XXYZ=     0.0808 YYXZ=    -0.0213 ZZXY=    -0.4332
 N-N= 2.689630046753D+02 E-N=-1.252862589640D+03  KE= 3.045119078789D+02

 Test job not archived.
 1|1|UNPC-UNK|SP|RB3LYP|6-31G(d,p)|C6H6O1|PCUSER|02-Oct-2017|0||#B3LYP 
 6-31G** SCF=DIRECT TEST||phenol||0,1|C,0,-0.565878198,0.750417497,-1.5
 02976109|C,0,-1.770997589,0.750417497,-0.780467546|C,0,0.639241192,0.7
 50417497,-0.780467546|C,0,-1.771321445,0.750417497,0.613384613|C,0,0.6
 39565048,0.750417497,0.613384613|C,0,-0.565878198,0.750417497,1.317032
 188|H,0,-2.709373645,0.750417497,-1.315117317|H,0,1.577617248,0.750417
 497,-1.315117317|H,0,-2.709965641,0.750417497,1.147563492|H,0,1.578209
 244,0.750417497,1.147563492|H,0,-0.565878198,0.750417497,2.397032188|O
 ,0,-0.565878198,0.750417497,-2.942976109|H,0,0.390914457,0.757498167,-
 3.021063749||Version=IA32W-G03RevC.02|State=1-A|HF=-307.4696794|RMSD=2
 .247e-005|Dipole=0.5001163,0.0041667,0.3156352|PG=C01 [X(C6H6O1)]||@


 MOST BUREAUCRACIES FUNCTION LIKE A SEPTIC TANK.
 THE LARGE CHUNKS RISE TO THE TOP.
 Job cpu time:  0 days  0 hours  0 minutes 21.0 seconds.
 File lengths (MBytes):  RWF=     20 Int=      0 D2E=      0 Chk=      8 Scr=      1
 Normal termination of Gaussian 03 at Mon Oct 02 13:22:57 2017.
