 Entering Link 1 = C:\G03W\l1.exe PID=      2892.
  
 Copyright (c) 1988,1990,1992,1993,1995,1998,2003,2004, Gaussian, Inc.
                  All Rights Reserved.
  
 This is the Gaussian(R) 03 program.  It is based on the
 the Gaussian(R) 98 system (copyright 1998, Gaussian, Inc.),
 the Gaussian(R) 94 system (copyright 1995, Gaussian, Inc.),
 the Gaussian 92(TM) system (copyright 1992, Gaussian, Inc.),
 the Gaussian 90(TM) system (copyright 1990, Gaussian, Inc.),
 the Gaussian 88(TM) system (copyright 1988, Gaussian, Inc.),
 the Gaussian 86(TM) system (copyright 1986, Carnegie Mellon
 University), and the Gaussian 82(TM) system (copyright 1983,
 Carnegie Mellon University). Gaussian is a federally registered
 trademark of Gaussian, Inc.
  
 This software contains proprietary and confidential information,
 including trade secrets, belonging to Gaussian, Inc.
  
 This software is provided under written license and may be
 used, copied, transmitted, or stored only in accord with that
 written license.
  
 The following legend is applicable only to US Government
 contracts under FAR:
  
                    RESTRICTED RIGHTS LEGEND
  
 Use, reproduction and disclosure by the US Government is
 subject to restrictions as set forth in subparagraphs (a)
 and (c) of the Commercial Computer Software - Restricted
 Rights clause in FAR 52.227-19.
  
 Gaussian, Inc.
 340 Quinnipiac St., Bldg. 40, Wallingford CT 06492
  
  
 ---------------------------------------------------------------
 Warning -- This program may not be used in any manner that
 competes with the business of Gaussian, Inc. or will provide
 assistance to any competitor of Gaussian, Inc.  The licensee
 of this program is prohibited from giving any competitor of
 Gaussian, Inc. access to this program.  By using this program,
 the user acknowledges that Gaussian, Inc. is engaged in the
 business of creating and licensing software in the field of
 computational chemistry and represents and warrants to the
 licensee that it is not a competitor of Gaussian, Inc. and that
 it will not use this program in any manner prohibited above.
 ---------------------------------------------------------------
  

 Cite this work as:
 Gaussian 03, Revision C.02,
 M. J. Frisch, G. W. Trucks, H. B. Schlegel, G. E. Scuseria, 
 M. A. Robb, J. R. Cheeseman, J. A. Montgomery, Jr., T. Vreven, 
 K. N. Kudin, J. C. Burant, J. M. Millam, S. S. Iyengar, J. Tomasi, 
 V. Barone, B. Mennucci, M. Cossi, G. Scalmani, N. Rega, 
 G. A. Petersson, H. Nakatsuji, M. Hada, M. Ehara, K. Toyota, 
 R. Fukuda, J. Hasegawa, M. Ishida, T. Nakajima, Y. Honda, O. Kitao, 
 H. Nakai, M. Klene, X. Li, J. E. Knox, H. P. Hratchian, J. B. Cross, 
 C. Adamo, J. Jaramillo, R. Gomperts, R. E. Stratmann, O. Yazyev, 
 A. J. Austin, R. Cammi, C. Pomelli, J. W. Ochterski, P. Y. Ayala, 
 K. Morokuma, G. A. Voth, P. Salvador, J. J. Dannenberg, 
 V. G. Zakrzewski, S. Dapprich, A. D. Daniels, M. C. Strain, 
 O. Farkas, D. K. Malick, A. D. Rabuck, K. Raghavachari, 
 J. B. Foresman, J. V. Ortiz, Q. Cui, A. G. Baboul, S. Clifford, 
 J. Cioslowski, B. B. Stefanov, G. Liu, A. Liashenko, P. Piskorz, 
 I. Komaromi, R. L. Martin, D. J. Fox, T. Keith, M. A. Al-Laham, 
 C. Y. Peng, A. Nanayakkara, M. Challacombe, P. M. W. Gill, 
 B. Johnson, W. Chen, M. W. Wong, C. Gonzalez, and J. A. Pople, 
 Gaussian, Inc., Wallingford CT, 2004.
 
 ******************************************
 Gaussian 03:  IA32W-G03RevC.02 12-Jun-2004
                02-Oct-2017 
 ******************************************
 %mem=300mb
 %chk=phenol_trimer.chk
 ------------------------------
 #B3LYP 6-31G** SCF=direct TEST
 ------------------------------
 1/38=1/1;
 2/17=6,18=5,40=1/2;
 3/5=1,6=6,7=101,11=2,16=1,25=1,30=1,74=-5/1,2,3;
 4//1;
 5/5=2,32=1,38=5/2;
 6/7=2,8=2,9=2,10=2,28=1/1;
 99/5=1,9=1/99;
 -------------
 phenol_trimer
 -------------
 Symbolic Z-matrix:
 Charge =  0 Multiplicity = 1
 8                     0.11441  -1.04091  -0.04326 
 1                    -0.31158  -0.19845  -0.31392 
 8                     2.03147   0.79491   0.65169 
 1                     1.54061  -0.04991   0.55006 
 8                    -0.32536   1.647    -0.46195 
 1                     0.58811   1.63652  -0.09975 
 6                    -0.22889  -2.43857  -0.09095 
 6                    -1.47831  -2.85949  -0.57685 
 6                     0.67604  -3.42018   0.34709 
 6                    -1.8109   -4.21229  -0.62314 
 6                     0.34402  -4.77313   0.30105 
 6                    -0.90119  -5.17567  -0.18435 
 1                    -2.19327  -2.11846  -0.92062 
 1                     1.64723  -3.11799   0.72646 
 1                    -2.78287  -4.51416  -1.00284 
 1                     1.0598   -5.51425   0.64516 
 1                    -1.1601   -6.22975  -0.22032 
 6                     3.3164    1.19471   1.16426 
 6                     3.66665   2.55229   1.25712 
 6                     4.25554   0.23832   1.58577 
 6                     4.91032   2.93959   1.75322 
 6                     5.49936   0.625     2.08196 
 6                     5.83271   1.97765   2.16806 
 1                     2.95667   3.30863   0.93721 
 1                     4.00646  -0.81643   1.52309 
 1                     5.15908   3.99515   1.81574 
 1                     6.20945  -0.13223   2.40194 
 1                     6.80176   2.27917   2.55463 
 6                    -1.26636   2.64012  -0.91119 
 6                    -0.88249   3.98336  -1.06176 
 6                    -2.59453   2.29346  -1.21143 
 6                    -1.7931    4.94488  -1.49659 
 6                    -3.50561   3.25453  -1.64629 
 6                    -3.10917   4.58499  -1.79096 
 1                     0.13868   4.27405  -0.83554 
 1                    -2.91333   1.26151  -1.10234 
 1                    -1.47359   5.97737  -1.60559 
 1                    -4.52733   2.96313  -1.87253 
 1                    -3.81885   5.33397  -2.12976 
 
                          Input orientation:                          
 ---------------------------------------------------------------------
 Center     Atomic     Atomic              Coordinates (Angstroms)
 Number     Number      Type              X           Y           Z
 ---------------------------------------------------------------------
    1          8             0        0.114413   -1.040905   -0.043260
    2          1             0       -0.311584   -0.198446   -0.313915
    3          8             0        2.031474    0.794908    0.651688
    4          1             0        1.540610   -0.049912    0.550063
    5          8             0       -0.325359    1.646999   -0.461947
    6          1             0        0.588106    1.636515   -0.099748
    7          6             0       -0.228890   -2.438571   -0.090952
    8          6             0       -1.478314   -2.859492   -0.576848
    9          6             0        0.676035   -3.420184    0.347086
   10          6             0       -1.810904   -4.212291   -0.623136
   11          6             0        0.344024   -4.773133    0.301047
   12          6             0       -0.901193   -5.175673   -0.184349
   13          1             0       -2.193271   -2.118465   -0.920620
   14          1             0        1.647233   -3.117995    0.726455
   15          1             0       -2.782866   -4.514156   -1.002841
   16          1             0        1.059802   -5.514249    0.645163
   17          1             0       -1.160101   -6.229746   -0.220316
   18          6             0        3.316396    1.194708    1.164263
   19          6             0        3.666655    2.552290    1.257118
   20          6             0        4.255537    0.238320    1.585769
   21          6             0        4.910320    2.939589    1.753223
   22          6             0        5.499361    0.624997    2.081961
   23          6             0        5.832711    1.977653    2.168059
   24          1             0        2.956670    3.308627    0.937212
   25          1             0        4.006456   -0.816429    1.523089
   26          1             0        5.159076    3.995155    1.815738
   27          1             0        6.209453   -0.132226    2.401945
   28          1             0        6.801757    2.279169    2.554626
   29          6             0       -1.266365    2.640120   -0.911190
   30          6             0       -0.882485    3.983361   -1.061763
   31          6             0       -2.594528    2.293461   -1.211425
   32          6             0       -1.793104    4.944883   -1.496589
   33          6             0       -3.505606    3.254528   -1.646292
   34          6             0       -3.109172    4.584988   -1.790961
   35          1             0        0.138684    4.274049   -0.835538
   36          1             0       -2.913331    1.261507   -1.102336
   37          1             0       -1.473591    5.977374   -1.605585
   38          1             0       -4.527326    2.963134   -1.872534
   39          1             0       -3.818847    5.333968   -2.129765
 ---------------------------------------------------------------------
                    Distance matrix (angstroms):
                    1          2          3          4          5
     1  O    0.000000
     2  H    0.982072   0.000000
     3  O    2.743771   2.721959   0.000000
     4  H    1.835248   2.049181   0.982342   0.000000
     5  O    2.755635   1.851424   2.742427   2.717630   0.000000
     6  H    2.719587   2.054846   1.832012   2.042928   0.982709
     7  C    1.440000   2.252711   4.014491   3.041006   4.103513
     8  C    2.475632   2.917458   5.213689   4.275228   4.653060
     9  C    2.475632   3.433935   4.438129   3.485315   5.228161
    10  C    3.755103   4.295874   6.439028   5.471238   6.046826
    11  C    3.755103   4.662163   5.828681   4.878795   6.499872
    12  C    4.260008   5.013703   6.704277   5.724962   6.852554
    13  H    2.693752   2.755958   5.367341   4.514829   4.228261
    14  H    2.693752   3.666483   3.932434   3.074998   5.292314
    15  H    4.623688   5.020677   7.355371   6.405734   6.655203
    16  H    4.623688   5.572997   6.383545   5.486273   7.377522
    17  H    5.346009   6.091414   7.764812   6.788054   7.924537
    18  C    4.087637   4.157900   1.440000   2.253827   4.013915
    19  C    5.217323   5.085379   2.475632   3.433868   4.439698
    20  C    4.630233   4.965698   2.475632   2.920033   5.211730
    21  C    6.486325   6.433398   3.755103   4.662581   5.830104
    22  C    6.024073   6.339193   3.755103   4.298130   6.437649
    23  C    6.833780   6.974809   4.260008   5.015083   6.704334
    24  H    5.287550   4.954429   2.693752   3.665365   3.935781
    25  H    4.201409   4.733070   2.693752   2.759478   5.364090
    26  H    7.366573   7.214557   4.623688   5.572952   6.385978
    27  H    6.629799   7.064291   4.623688   5.023379   7.353319
    28  H    7.905218   8.060194   5.346009   6.092828   7.764994
    29  C    4.026139   3.053818   4.089393   4.153389   1.440000
    30  C    5.222490   4.286341   4.646860   4.973597   2.475632
    31  C    4.452075   3.496707   5.207374   5.068886   2.475632
    32  C    6.448290   5.481555   6.038607   6.344321   3.755103
    33  C    5.841661   4.888767   6.479946   6.419315   3.755103
    34  C    6.715403   5.734929   6.837944   6.970163   4.260008
    35  H    5.373736   4.525268   4.230711   4.752045   2.693752
    36  H    3.948415   3.085800   5.267391   4.928269   2.693752
    37  H    7.363346   6.415561   6.651219   7.075338   4.623688
    38  H    6.397212   5.495213   7.354642   7.194948   4.623688
    39  H    7.775798   6.797485   7.909854   8.055521   5.346009
                    6          7          8          9         10
     6  H    0.000000
     7  C    4.156186   0.000000
     8  C    4.971097   1.405109   0.000000
     9  C    5.077164   1.405109   2.410239   0.000000
    10  C    6.343321   2.435585   1.393852   2.784535   0.000000
    11  C    6.426804   2.435585   2.784535   1.393852   2.410886
    12  C    6.973599   2.820008   2.419053   2.419053   1.395784
    13  H    4.744445   2.156295   1.085571   3.396243   2.149142
    14  H    4.940620   2.156295   3.396243   1.085571   3.870090
    15  H    7.071759   3.415024   2.149706   3.870798   1.086281
    16  H    7.204916   3.415024   3.870798   2.149706   3.397739
    17  H    8.059084   3.906009   3.403966   3.403966   2.157761
    18  C    3.039158   5.229276   6.515923   5.379267   7.662875
    19  C    3.486716   6.473117   7.689052   6.741098   8.904975
    20  C    4.271530   5.485182   6.866615   5.266101   7.841487
    21  C    4.879860   7.664011   8.937182   7.768725  10.098086
    22  C    5.468405   6.849807   8.240078   6.529759   9.173707
    23  C    5.724089   7.832570   9.186053   7.684002  10.224042
    24  H    3.079179   6.650955   7.746429   7.129267   9.040391
    25  H    4.509506   4.814003   6.218243   4.387964   7.069643
    26  H    5.488719   8.605723   9.836951   8.788733  11.040422
    27  H    6.402067   7.279150   8.684063   6.756613   9.493376
    28  H    6.787353   8.870521  10.235797   8.653342  11.243450
    29  C    2.259363   5.248071   5.513841   6.487177   6.880047
    30  C    2.931859   6.527700   6.885840   7.695864   8.259726
    31  C    3.434612   5.407756   5.310513   6.765447   6.579131
    32  C    4.308900   7.677106   7.864686   8.914602   9.198754
    33  C    4.665645   6.750358   6.529539   8.124744   7.724782
    34  C    5.022306   7.779231   7.717128   9.109436   8.968915
    35  H    2.774879   6.763785   7.319086   7.803113   8.709994
    36  H    3.661404   4.681848   4.395230   6.074752   5.604235
    37  H    5.035990   8.641268   8.896546   9.836051  10.242474
    38  H    5.574077   7.129446   6.699124   8.529269   7.773459
    39  H    6.100275   8.800960   8.661549  10.147607   9.870807
                   11         12         13         14         15
    11  C    0.000000
    12  C    1.395784   0.000000
    13  H    3.870090   3.399718   0.000000
    14  H    2.149142   3.399718   4.296672   0.000000
    15  H    3.397739   2.155975   2.468546   4.956361   0.000000
    16  H    1.086281   2.155975   4.956361   2.468546   4.299093
    17  H    2.157761   1.086000   4.296569   4.296569   2.487762
    18  C    6.722743   7.758130   6.758719   4.645125   8.630670
    19  C    8.100356   9.092001   7.803667   6.042499   9.830483
    20  C    6.485762   7.683522   7.309141   4.336648   8.878403
    21  C    9.079976  10.167859   9.121093   6.956745  11.060710
    22  C    7.673915   8.930343   8.701647   5.539519  10.223609
    23  C    8.898569  10.101949   9.525466   6.749968  11.243947
    24  H    8.517364   9.387458   7.708875   6.562051   9.894545
    25  H    5.528319   6.782579   6.789965   3.390835   8.133167
    26  H   10.117405  11.172793   9.945904   8.007276  11.976109
    27  H    7.768852   9.093216   9.251505   5.704028  10.566725
    28  H    9.824251  11.064000  10.598445   7.683795  12.274764
    29  C    7.682395   7.858007   4.848028   6.657839   7.313812
    30  C    8.946383   9.200984   6.242624   7.747674   8.707623
    31  C    7.801244   7.727240   4.439669   7.143652   6.813415
    32  C   10.111313  10.244175   7.098081   9.043663   9.523488
    33  C    9.113459   8.943632   5.578340   8.531749   7.828719
    34  C   10.191933  10.135427   6.821484   9.396633   9.139039
    35  H    9.120609   9.529042   6.805107   7.704405   9.262613
    36  H    6.999767   6.806518   3.460595   6.582041   5.777993
    37  H   11.068531  11.257798   8.156575   9.894629  10.590075
    38  H    9.397039   9.068572   5.672442   9.047655   7.727184
    39  H   11.197849  11.079255   7.722906  10.462872   9.966381
                   16         17         18         19         20
    16  H    0.000000
    17  H    2.487762   0.000000
    18  C    7.097309   8.779443   0.000000
    19  C    8.499366  10.129390   1.405109   0.000000
    20  C    6.647519   8.627106   1.405109   2.410239   0.000000
    21  C    9.355301  11.172358   2.435585   1.393852   2.784535
    22  C    7.711317   9.830383   2.435585   2.784535   1.393852
    23  C    9.012683  11.043784   2.820008   2.419053   2.419053
    24  H    9.029205  10.453146   2.156295   1.085571   3.396243
    25  H    5.614538   7.683540   2.156295   3.396243   1.085571
    26  H   10.421279  12.191231   3.415024   2.149706   3.870798
    27  H    7.653193   9.917981   3.415024   3.870798   2.149706
    28  H    9.866786  11.978862   3.906009   3.403966   3.403966
    29  C    8.621312   8.897366   5.234350   5.389244   6.518807
    30  C    9.843306  10.251471   5.510207   5.302815   6.887237
    31  C    8.818241   8.699709   6.464532   6.735214   7.679277
    32  C   11.050774  11.265074   6.873931   6.566306   8.260673
    33  C   10.148161   9.873513   7.660405   7.769444   8.931913
    34  C   11.194179  11.100643   7.843167   7.702887   9.194279
    35  H    9.942420  10.601654   4.855862   4.448622   6.252864
    36  H    8.046764   7.744072   6.629588   7.108401   7.724344
    37  H   11.980874  12.289468   7.313681   6.807966   8.714608
    38  H   10.460441   9.928599   8.594966   8.780936   9.824620
    39  H   12.214141  12.018086   8.882330   8.674182  10.245316
                   21         22         23         24         25
    21  C    0.000000
    22  C    2.410886   0.000000
    23  C    1.395784   1.395784   0.000000
    24  H    2.149142   3.870090   3.399718   0.000000
    25  H    3.870090   2.149142   3.399718   4.296672   0.000000
    26  H    1.086281   3.397739   2.155975   2.468546   4.956361
    27  H    3.397739   1.086281   2.155975   4.956361   2.468546
    28  H    2.157761   2.157761   1.086000   4.296569   4.296569
    29  C    6.733514   7.667771   7.766434   4.658059   6.758408
    30  C    6.524584   7.866993   7.716765   4.380671   7.322649
    31  C    8.095021   8.896134   9.085097   6.038461   7.792430
    32  C    7.714815   9.200406   8.965888   5.582210   8.714703
    33  C    9.082054  10.094738  10.167785   6.959773   9.113108
    34  C    8.920809  10.236596  10.120736   6.772478   9.528399
    35  H    5.590257   7.110854   6.834981   3.466371   6.814378
    36  H    8.495864   9.017665   9.364913   6.542735   7.687271
    37  H    7.827135   9.532470   9.144408   5.763266   9.272285
    38  H   10.110185  11.029024  11.163688   8.001515   9.931807
    39  H    9.849315  11.257977  11.085517   7.708176  10.602173
                   26         27         28         29         30
    26  H    0.000000
    27  H    4.299093   0.000000
    28  H    2.487762   2.487762   0.000000
    29  C    7.110453   8.634270   8.788444   0.000000
    30  C    6.691832   8.901175   8.661992   1.405109   0.000000
    31  C    8.495755   9.820921  10.122920   1.405109   2.410239
    32  C    7.759272  10.247757   9.868637   2.435585   1.393852
    33  C    9.360069  11.056252  11.173217   2.435585   2.784535
    34  C    9.039917  11.254747  11.064693   2.820008   2.419053
    35  H    5.684310   8.170116   7.737525   2.156295   1.085571
    36  H    9.008426   9.871559  10.430338   2.156295   3.396243
    37  H    7.721846  10.602673   9.973237   3.415024   2.149706
    38  H   10.416084  11.963731  12.182597   3.415024   3.870798
    39  H    9.897601  12.287492  12.003022   3.906009   3.403966
                   31         32         33         34         35
    31  C    0.000000
    32  C    2.784535   0.000000
    33  C    1.393852   2.410886   0.000000
    34  C    2.419053   1.395784   1.395784   0.000000
    35  H    3.396243   2.149142   3.870090   3.399718   0.000000
    36  H    1.085571   3.870090   2.149142   3.399718   4.296672
    37  H    3.870798   1.086281   3.397739   2.155975   2.468546
    38  H    2.149706   3.397739   1.086281   2.155975   4.956361
    39  H    3.403966   2.157761   2.157761   1.086000   4.296569
                   36         37         38         39
    36  H    0.000000
    37  H    4.956361   0.000000
    38  H    2.468546   4.299093   0.000000
    39  H    4.296569   2.487762   2.487762   0.000000
 Stoichiometry    C18H18O3
 Framework group  C1[X(C18H18O3)]
 Deg. of freedom   111
 Full point group                 C1      NOp   1
 Largest Abelian subgroup         C1      NOp   1
 Largest concise Abelian subgroup C1      NOp   1
                         Standard orientation:                         
 ---------------------------------------------------------------------
 Center     Atomic     Atomic              Coordinates (Angstroms)
 Number     Number      Type              X           Y           Z
 ---------------------------------------------------------------------
    1          8             0       -1.067136   -1.174620    0.005407
    2          1             0       -0.085550   -1.188610    0.032926
    3          8             0       -0.476212    1.504635   -0.020656
    4          1             0       -0.971255    0.657001   -0.058669
    5          8             0        1.557150   -0.334630    0.038053
    6          1             0        1.063413    0.514821    0.057391
    7          6             0       -2.118774   -2.158293    0.012298
    8          6             0       -1.823245   -3.531961    0.006761
    9          6             0       -3.469604   -1.771725    0.024751
   10          6             0       -2.840959   -4.484346    0.013430
   11          6             0       -4.487760   -2.723637    0.031424
   12          6             0       -4.178236   -4.084658    0.025794
   13          1             0       -0.786492   -3.853701   -0.002851
   14          1             0       -3.721414   -0.715772    0.029219
   15          1             0       -2.588453   -5.540863    0.008954
   16          1             0       -5.525029   -2.401166    0.041042
   17          1             0       -4.971346   -4.826511    0.030992
   18          6             0       -0.811987    2.904935   -0.024554
   19          6             0        0.190785    3.888260   -0.067596
   20          6             0       -2.151703    3.326789    0.014577
   21          6             0       -0.133914    5.243760   -0.071380
   22          6             0       -2.477031    4.682138    0.010815
   23          6             0       -1.469547    5.647198   -0.032187
   24          1             0        1.232799    3.585393   -0.098299
   25          1             0       -2.943095    2.584473    0.048189
   26          1             0        0.658368    5.986164   -0.105022
   27          1             0       -3.519879    4.984680    0.041548
   28          1             0       -1.722777    6.703258   -0.035127
   29          6             0        2.936340   -0.748333    0.021226
   30          6             0        3.971895    0.181165    0.216136
   31          6             0        3.284781   -2.092975   -0.190570
   32          6             0        5.306979   -0.218974    0.199903
   33          6             0        4.619680   -2.493725   -0.206912
   34          6             0        5.637263   -1.558503   -0.011727
   35          1             0        3.726075    1.225515    0.381575
   36          1             0        2.501174   -2.828537   -0.343450
   37          1             0        6.090722    0.517460    0.352934
   38          1             0        4.865131   -3.538877   -0.372499
   39          1             0        6.677403   -1.870504   -0.024417
 ---------------------------------------------------------------------
 Rotational constants (GHZ):      0.1927562      0.1912344      0.0960972
 Standard basis: 6-31G(d,p) (6D, 7F)
 There are   405 symmetry adapted basis functions of A   symmetry.
 Integral buffers will be    262144 words long.
 Raffenetti 2 integral format.
 Two-electron integral symmetry is turned on.
   405 basis functions,   714 primitive gaussians,   405 cartesian basis functions
    75 alpha electrons       75 beta electrons
       nuclear repulsion energy      1421.6802464807 Hartrees.
 NAtoms=   39 NActive=   39 NUniq=   39 SFac= 1.00D+00 NAtFMM=   60 Big=F
 One-electron integrals computed using PRISM.
 NBasis=   405 RedAO= T  NBF=   405
 NBsUse=   405 1.00D-06 NBFU=   405
 Harris functional with IExCor=  402 diagonalized for initial guess.
 ExpMin= 1.61D-01 ExpMax= 5.48D+03 ExpMxC= 8.25D+02 IAcc=1 IRadAn=         1 AccDes= 1.00D-06
 HarFok:  IExCor= 402 AccDes= 1.00D-06 IRadAn=         1 IDoV=1
 ScaDFX=  1.000000  1.000000  1.000000  1.000000
 Initial guess orbital symmetries:
       Occupied  (A) (A) (A) (A) (A) (A) (A) (A) (A) (A) (A) (A)
                 (A) (A) (A) (A) (A) (A) (A) (A) (A) (A) (A) (A)
                 (A) (A) (A) (A) (A) (A) (A) (A) (A) (A) (A) (A)
                 (A) (A) (A) (A) (A) (A) (A) (A) (A) (A) (A) (A)
                 (A) (A) (A) (A) (A) (A) (A) (A) (A) (A) (A) (A)
                 (A) (A) (A) (A) (A) (A) (A) (A) (A) (A) (A) (A)
                 (A) (A) (A)
       Virtual   (A) (A) (A) (A) (A) (A) (A) (A) (A) (A) (A) (A)
                 (A) (A) (A) (A) (A) (A) (A) (A) (A) (A) (A) (A)
                 (A) (A) (A) (A) (A) (A) (A) (A) (A) (A) (A) (A)
                 (A) (A) (A) (A) (A) (A) (A) (A) (A) (A) (A) (A)
                 (A) (A) (A) (A) (A) (A) (A) (A) (A) (A) (A) (A)
                 (A) (A) (A) (A) (A) (A) (A) (A) (A) (A) (A) (A)
                 (A) (A) (A) (A) (A) (A) (A) (A) (A) (A) (A) (A)
                 (A) (A) (A) (A) (A) (A) (A) (A) (A) (A) (A) (A)
                 (A) (A) (A) (A) (A) (A) (A) (A) (A) (A) (A) (A)
                 (A) (A) (A) (A) (A) (A) (A) (A) (A) (A) (A) (A)
                 (A) (A) (A) (A) (A) (A) (A) (A) (A) (A) (A) (A)
                 (A) (A) (A) (A) (A) (A) (A) (A) (A) (A) (A) (A)
                 (A) (A) (A) (A) (A) (A) (A) (A) (A) (A) (A) (A)
                 (A) (A) (A) (A) (A) (A) (A) (A) (A) (A) (A) (A)
                 (A) (A) (A) (A) (A) (A) (A) (A) (A) (A) (A) (A)
                 (A) (A) (A) (A) (A) (A) (A) (A) (A) (A) (A) (A)
                 (A) (A) (A) (A) (A) (A) (A) (A) (A) (A) (A) (A)
                 (A) (A) (A) (A) (A) (A) (A) (A) (A) (A) (A) (A)
                 (A) (A) (A) (A) (A) (A) (A) (A) (A) (A) (A) (A)
                 (A) (A) (A) (A) (A) (A) (A) (A) (A) (A) (A) (A)
                 (A) (A) (A) (A) (A) (A) (A) (A) (A) (A) (A) (A)
                 (A) (A) (A) (A) (A) (A) (A) (A) (A) (A) (A) (A)
                 (A) (A) (A) (A) (A) (A) (A) (A) (A) (A) (A) (A)
                 (A) (A) (A) (A) (A) (A) (A) (A) (A) (A) (A) (A)
                 (A) (A) (A) (A) (A) (A) (A) (A) (A) (A) (A) (A)
                 (A) (A) (A) (A) (A) (A) (A) (A) (A) (A) (A) (A)
                 (A) (A) (A) (A) (A) (A) (A) (A) (A) (A) (A) (A)
                 (A) (A) (A) (A) (A) (A)
 The electronic state of the initial guess is 1-A.
 Warning!  Cutoffs for single-point calculations used.
 Requested convergence on RMS density matrix=1.00D-04 within 128 cycles.
 Requested convergence on MAX density matrix=1.00D-02.
 Requested convergence on             energy=5.00D-05.
 No special actions if energy rises.
 SCF Done:  E(RB+HF-LYP) =  -922.408716030     A.U. after    8 cycles
             Convg  =    0.5789D-06             -V/T =  2.0104
             S**2   =   0.0000

 **********************************************************************

            Population analysis using the SCF density.

 **********************************************************************

 Orbital symmetries:
       Occupied  (A) (A) (A) (A) (A) (A) (A) (A) (A) (A) (A) (A)
                 (A) (A) (A) (A) (A) (A) (A) (A) (A) (A) (A) (A)
                 (A) (A) (A) (A) (A) (A) (A) (A) (A) (A) (A) (A)
                 (A) (A) (A) (A) (A) (A) (A) (A) (A) (A) (A) (A)
                 (A) (A) (A) (A) (A) (A) (A) (A) (A) (A) (A) (A)
                 (A) (A) (A) (A) (A) (A) (A) (A) (A) (A) (A) (A)
                 (A) (A) (A)
       Virtual   (A) (A) (A) (A) (A) (A) (A) (A) (A) (A) (A) (A)
                 (A) (A) (A) (A) (A) (A) (A) (A) (A) (A) (A) (A)
                 (A) (A) (A) (A) (A) (A) (A) (A) (A) (A) (A) (A)
                 (A) (A) (A) (A) (A) (A) (A) (A) (A) (A) (A) (A)
                 (A) (A) (A) (A) (A) (A) (A) (A) (A) (A) (A) (A)
                 (A) (A) (A) (A) (A) (A) (A) (A) (A) (A) (A) (A)
                 (A) (A) (A) (A) (A) (A) (A) (A) (A) (A) (A) (A)
                 (A) (A) (A) (A) (A) (A) (A) (A) (A) (A) (A) (A)
                 (A) (A) (A) (A) (A) (A) (A) (A) (A) (A) (A) (A)
                 (A) (A) (A) (A) (A) (A) (A) (A) (A) (A) (A) (A)
                 (A) (A) (A) (A) (A) (A) (A) (A) (A) (A) (A) (A)
                 (A) (A) (A) (A) (A) (A) (A) (A) (A) (A) (A) (A)
                 (A) (A) (A) (A) (A) (A) (A) (A) (A) (A) (A) (A)
                 (A) (A) (A) (A) (A) (A) (A) (A) (A) (A) (A) (A)
                 (A) (A) (A) (A) (A) (A) (A) (A) (A) (A) (A) (A)
                 (A) (A) (A) (A) (A) (A) (A) (A) (A) (A) (A) (A)
                 (A) (A) (A) (A) (A) (A) (A) (A) (A) (A) (A) (A)
                 (A) (A) (A) (A) (A) (A) (A) (A) (A) (A) (A) (A)
                 (A) (A) (A) (A) (A) (A) (A) (A) (A) (A) (A) (A)
                 (A) (A) (A) (A) (A) (A) (A) (A) (A) (A) (A) (A)
                 (A) (A) (A) (A) (A) (A) (A) (A) (A) (A) (A) (A)
                 (A) (A) (A) (A) (A) (A) (A) (A) (A) (A) (A) (A)
                 (A) (A) (A) (A) (A) (A) (A) (A) (A) (A) (A) (A)
                 (A) (A) (A) (A) (A) (A) (A) (A) (A) (A) (A) (A)
                 (A) (A) (A) (A) (A) (A) (A) (A) (A) (A) (A) (A)
                 (A) (A) (A) (A) (A) (A) (A) (A) (A) (A) (A) (A)
                 (A) (A) (A) (A) (A) (A) (A) (A) (A) (A) (A) (A)
                 (A) (A) (A) (A) (A) (A)
 The electronic state is 1-A.
 Alpha  occ. eigenvalues --  -19.16707 -19.16636 -19.16500 -10.26450 -10.26419
 Alpha  occ. eigenvalues --  -10.26391 -10.19516 -10.19490 -10.19464 -10.19402
 Alpha  occ. eigenvalues --  -10.19396 -10.19376 -10.19369 -10.19343 -10.19340
 Alpha  occ. eigenvalues --  -10.19171 -10.19150 -10.19105 -10.18735 -10.18715
 Alpha  occ. eigenvalues --  -10.18689  -1.02911  -1.01258  -1.01132  -0.85169
 Alpha  occ. eigenvalues --   -0.85007  -0.84971  -0.74802  -0.74778  -0.74746
 Alpha  occ. eigenvalues --   -0.74590  -0.74046  -0.74007  -0.62715  -0.61659
 Alpha  occ. eigenvalues --   -0.61616  -0.60817  -0.60550  -0.60521  -0.55469
 Alpha  occ. eigenvalues --   -0.54615  -0.54578  -0.49650  -0.49540  -0.49502
 Alpha  occ. eigenvalues --   -0.45975  -0.45947  -0.45904  -0.44375  -0.44236
 Alpha  occ. eigenvalues --   -0.44210  -0.42250  -0.42215  -0.42132  -0.39507
 Alpha  occ. eigenvalues --   -0.39139  -0.39124  -0.37754  -0.37631  -0.36848
 Alpha  occ. eigenvalues --   -0.35742  -0.35709  -0.35660  -0.33523  -0.33452
 Alpha  occ. eigenvalues --   -0.33303  -0.32857  -0.32666  -0.31507  -0.25333
 Alpha  occ. eigenvalues --   -0.25311  -0.25281  -0.23051  -0.22665  -0.22631
 Alpha virt. eigenvalues --   -0.00282  -0.00257  -0.00229   0.00561   0.00714
 Alpha virt. eigenvalues --    0.00734   0.05712   0.07853   0.08398   0.08473
 Alpha virt. eigenvalues --    0.11013   0.11128   0.13415   0.14352   0.14388
 Alpha virt. eigenvalues --    0.15084   0.16068   0.16152   0.16166   0.16302
 Alpha virt. eigenvalues --    0.16366   0.18271   0.18370   0.18390   0.20692
 Alpha virt. eigenvalues --    0.20881   0.21813   0.23765   0.23831   0.23964
 Alpha virt. eigenvalues --    0.29547   0.29601   0.30549   0.30622   0.30787
 Alpha virt. eigenvalues --    0.31421   0.33152   0.33427   0.33452   0.33660
 Alpha virt. eigenvalues --    0.34314   0.34364   0.46581   0.46639   0.47639
 Alpha virt. eigenvalues --    0.50634   0.50935   0.50987   0.52106   0.52137
 Alpha virt. eigenvalues --    0.52163   0.54631   0.54917   0.54939   0.55543
 Alpha virt. eigenvalues --    0.56322   0.56362   0.57880   0.58022   0.58070
 Alpha virt. eigenvalues --    0.59148   0.59181   0.59208   0.59629   0.59654
 Alpha virt. eigenvalues --    0.59687   0.60064   0.60154   0.60177   0.60936
 Alpha virt. eigenvalues --    0.60971   0.61132   0.61336   0.61368   0.61440
 Alpha virt. eigenvalues --    0.62270   0.62335   0.63635   0.66153   0.66194
 Alpha virt. eigenvalues --    0.66263   0.67151   0.67195   0.67221   0.75352
 Alpha virt. eigenvalues --    0.75408   0.75435   0.77706   0.78031   0.78532
 Alpha virt. eigenvalues --    0.81202   0.81212   0.81362   0.82350   0.82808
 Alpha virt. eigenvalues --    0.82810   0.82844   0.84554   0.84626   0.86083
 Alpha virt. eigenvalues --    0.86956   0.87676   0.87767   0.89654   0.90920
 Alpha virt. eigenvalues --    0.90991   0.91179   0.94353   0.94377   0.94413
 Alpha virt. eigenvalues --    0.95729   0.96131   0.98083   0.98208   0.98733
 Alpha virt. eigenvalues --    0.99004   1.00811   1.01556   1.01998   1.02332
 Alpha virt. eigenvalues --    1.03029   1.07638   1.07666   1.08925   1.12023
 Alpha virt. eigenvalues --    1.12035   1.13909   1.16329   1.16451   1.16948
 Alpha virt. eigenvalues --    1.17003   1.19528   1.19652   1.24188   1.24255
 Alpha virt. eigenvalues --    1.24776   1.24811   1.24856   1.28104   1.29462
 Alpha virt. eigenvalues --    1.29567   1.35727   1.36146   1.36281   1.36593
 Alpha virt. eigenvalues --    1.36787   1.38227   1.39233   1.40130   1.40157
 Alpha virt. eigenvalues --    1.40193   1.41509   1.41538   1.41590   1.41813
 Alpha virt. eigenvalues --    1.41845   1.41874   1.43741   1.43803   1.47080
 Alpha virt. eigenvalues --    1.52430   1.52746   1.64653   1.65093   1.67571
 Alpha virt. eigenvalues --    1.68304   1.68981   1.70402   1.72390   1.72410
 Alpha virt. eigenvalues --    1.74339   1.76058   1.76428   1.76470   1.77209
 Alpha virt. eigenvalues --    1.78489   1.78540   1.84927   1.84979   1.85365
 Alpha virt. eigenvalues --    1.87311   1.87377   1.87425   1.88890   1.88990
 Alpha virt. eigenvalues --    1.89239   1.92052   1.92088   1.92323   1.93275
 Alpha virt. eigenvalues --    1.94331   1.94419   1.96660   1.96706   1.96753
 Alpha virt. eigenvalues --    1.97045   1.97412   1.97437   1.99361   1.99470
 Alpha virt. eigenvalues --    1.99533   2.00423   2.00445   2.00472   2.06045
 Alpha virt. eigenvalues --    2.06881   2.06926   2.11776   2.11831   2.12856
 Alpha virt. eigenvalues --    2.19339   2.19426   2.19683   2.27933   2.27980
 Alpha virt. eigenvalues --    2.28135   2.30861   2.30952   2.30961   2.31024
 Alpha virt. eigenvalues --    2.33403   2.33572   2.35368   2.35431   2.35670
 Alpha virt. eigenvalues --    2.37401   2.37499   2.37537   2.38215   2.38260
 Alpha virt. eigenvalues --    2.38289   2.40544   2.40709   2.40758   2.40818
 Alpha virt. eigenvalues --    2.40854   2.41814   2.44293   2.44328   2.44359
 Alpha virt. eigenvalues --    2.45243   2.45361   2.45381   2.50554   2.50578
 Alpha virt. eigenvalues --    2.50608   2.51192   2.52139   2.52233   2.52977
 Alpha virt. eigenvalues --    2.54378   2.54453   2.58686   2.58844   2.59287
 Alpha virt. eigenvalues --    2.59355   2.59430   2.62989   2.63176   2.63628
 Alpha virt. eigenvalues --    2.64184   2.65105   2.65144   2.66572   2.69042
 Alpha virt. eigenvalues --    2.69184   2.71574   2.77093   2.77178   2.77865
 Alpha virt. eigenvalues --    2.78012   2.78659   2.79449   2.79770   2.79946
 Alpha virt. eigenvalues --    2.83725   2.96026   2.97552   2.97839   3.02663
 Alpha virt. eigenvalues --    3.02772   3.04892   3.06927   3.07064   3.13555
 Alpha virt. eigenvalues --    3.18773   3.18792   3.20831   3.23493   3.23561
 Alpha virt. eigenvalues --    3.23571   3.24385   3.24468   3.25926   3.32427
 Alpha virt. eigenvalues --    3.33400   3.33447   3.41799   3.42354   3.42432
 Alpha virt. eigenvalues --    3.49921   3.49997   3.51091   3.63032   3.63636
 Alpha virt. eigenvalues --    3.64805   3.88225   3.88422   3.88485   4.12029
 Alpha virt. eigenvalues --    4.12635   4.12646   4.15413   4.15447   4.15552
 Alpha virt. eigenvalues --    4.16183   4.16300   4.17170   4.27933   4.28096
 Alpha virt. eigenvalues --    4.43110   4.43138   4.43173   4.45838   4.46870
 Alpha virt. eigenvalues --    4.47470   4.47516   4.84209   4.84516   4.84568
          Condensed to atoms (all electrons):
              1          2          3          4          5          6
     1  O    8.268240   0.245577  -0.018133   0.065301  -0.017472   0.003987
     2  H    0.245577   0.364937   0.003962  -0.010576   0.064874  -0.010540
     3  O   -0.018133   0.003962   8.269590   0.245428  -0.018260   0.065731
     4  H    0.065301  -0.010576   0.245428   0.363487   0.004025  -0.010732
     5  O   -0.017472   0.064874  -0.018260   0.004025   8.271508   0.245094
     6  H    0.003987  -0.010540   0.065731  -0.010732   0.245094   0.363307
     7  C    0.216653  -0.011765   0.000089  -0.000443   0.000086   0.000016
     8  C   -0.046863  -0.002520  -0.000006   0.000286  -0.000032   0.000000
     9  C   -0.040657   0.002141   0.000016  -0.000628  -0.000008   0.000000
    10  C    0.004047   0.000184   0.000000  -0.000012   0.000000   0.000000
    11  C    0.002652  -0.000065   0.000000   0.000025   0.000000   0.000000
    12  C    0.000097  -0.000004   0.000000   0.000001   0.000000   0.000000
    13  H   -0.005442   0.001706   0.000000  -0.000010  -0.000046   0.000001
    14  H   -0.002054  -0.000237  -0.000047   0.001572   0.000000  -0.000002
    15  H   -0.000048  -0.000003   0.000000   0.000000   0.000000   0.000000
    16  H   -0.000038   0.000001   0.000000  -0.000001   0.000000   0.000000
    17  H    0.000001   0.000000   0.000000   0.000000   0.000000   0.000000
    18  C    0.000099   0.000015   0.216629  -0.011736   0.000087  -0.000437
    19  C   -0.000009   0.000000  -0.040644   0.002129   0.000016  -0.000629
    20  C   -0.000032   0.000000  -0.046817  -0.002494  -0.000006   0.000291
    21  C    0.000000   0.000000   0.002663  -0.000064   0.000000   0.000025
    22  C    0.000000   0.000000   0.004054   0.000182   0.000000  -0.000012
    23  C    0.000000   0.000000   0.000097  -0.000004   0.000000   0.000001
    24  H    0.000000  -0.000002  -0.002030  -0.000236  -0.000049   0.001568
    25  H   -0.000045   0.000001  -0.005449   0.001678   0.000000  -0.000010
    26  H    0.000000   0.000000  -0.000038   0.000001   0.000000  -0.000001
    27  H    0.000000   0.000000  -0.000048  -0.000003   0.000000   0.000000
    28  H    0.000000   0.000000   0.000001   0.000000   0.000000   0.000000
    29  C    0.000082  -0.000415   0.000115   0.000014   0.216465  -0.011773
    30  C   -0.000006   0.000277  -0.000033   0.000000  -0.046756  -0.002438
    31  C    0.000015  -0.000623  -0.000008   0.000000  -0.040649   0.002122
    32  C    0.000000  -0.000012   0.000000   0.000000   0.004073   0.000180
    33  C    0.000000   0.000025   0.000000   0.000000   0.002675  -0.000066
    34  C    0.000000   0.000001   0.000000   0.000000   0.000098  -0.000004
    35  H    0.000000  -0.000009  -0.000044   0.000001  -0.005350   0.001629
    36  H   -0.000047   0.001547   0.000000  -0.000001  -0.001925  -0.000241
    37  H    0.000000   0.000000   0.000000   0.000000  -0.000048  -0.000003
    38  H    0.000000  -0.000001   0.000000   0.000000  -0.000038   0.000001
    39  H    0.000000   0.000000   0.000000   0.000000   0.000001   0.000000
              7          8          9         10         11         12
     1  O    0.216653  -0.046863  -0.040657   0.004047   0.002652   0.000097
     2  H   -0.011765  -0.002520   0.002141   0.000184  -0.000065  -0.000004
     3  O    0.000089  -0.000006   0.000016   0.000000   0.000000   0.000000
     4  H   -0.000443   0.000286  -0.000628  -0.000012   0.000025   0.000001
     5  O    0.000086  -0.000032  -0.000008   0.000000   0.000000   0.000000
     6  H    0.000016   0.000000   0.000000   0.000000   0.000000   0.000000
     7  C    4.529680   0.516374   0.525894  -0.012886  -0.017359  -0.040384
     8  C    0.516374   4.950941  -0.069349   0.506923  -0.037403  -0.039741
     9  C    0.525894  -0.069349   4.900888  -0.037473   0.534302  -0.038548
    10  C   -0.012886   0.506923  -0.037473   4.821372  -0.033545   0.546945
    11  C   -0.017359  -0.037403   0.534302  -0.033545   4.797479   0.545524
    12  C   -0.040384  -0.039741  -0.038548   0.546945   0.545524   4.819183
    13  H   -0.040058   0.361889   0.005524  -0.040058   0.000424   0.005058
    14  H   -0.039417   0.006310   0.356456   0.000222  -0.040353   0.005193
    15  H    0.003721  -0.035986   0.000540   0.366790   0.004813  -0.041151
    16  H    0.004048   0.000515  -0.038933   0.004843   0.370376  -0.040769
    17  H    0.000729   0.004815   0.004821  -0.041024  -0.041183   0.368928
    18  C   -0.000003   0.000000   0.000002   0.000000   0.000000   0.000000
    19  C    0.000000   0.000000   0.000000   0.000000   0.000000   0.000000
    20  C    0.000001   0.000000  -0.000022   0.000000   0.000000   0.000000
    21  C    0.000000   0.000000   0.000000   0.000000   0.000000   0.000000
    22  C    0.000000   0.000000   0.000000   0.000000   0.000000   0.000000
    23  C    0.000000   0.000000   0.000000   0.000000   0.000000   0.000000
    24  H    0.000000   0.000000   0.000000   0.000000   0.000000   0.000000
    25  H    0.000001   0.000000  -0.000040   0.000000   0.000000   0.000000
    26  H    0.000000   0.000000   0.000000   0.000000   0.000000   0.000000
    27  H    0.000000   0.000000   0.000000   0.000000   0.000000   0.000000
    28  H    0.000000   0.000000   0.000000   0.000000   0.000000   0.000000
    29  C   -0.000003   0.000001   0.000000   0.000000   0.000000   0.000000
    30  C    0.000000   0.000000   0.000000   0.000000   0.000000   0.000000
    31  C    0.000002  -0.000019   0.000000   0.000000   0.000000   0.000000
    32  C    0.000000   0.000000   0.000000   0.000000   0.000000   0.000000
    33  C    0.000000   0.000000   0.000000   0.000000   0.000000   0.000000
    34  C    0.000000   0.000000   0.000000   0.000000   0.000000   0.000000
    35  H    0.000000   0.000000   0.000000   0.000000   0.000000   0.000000
    36  H   -0.000003  -0.000017   0.000000   0.000001   0.000000   0.000000
    37  H    0.000000   0.000000   0.000000   0.000000   0.000000   0.000000
    38  H    0.000000   0.000000   0.000000   0.000000   0.000000   0.000000
    39  H    0.000000   0.000000   0.000000   0.000000   0.000000   0.000000
             13         14         15         16         17         18
     1  O   -0.005442  -0.002054  -0.000048  -0.000038   0.000001   0.000099
     2  H    0.001706  -0.000237  -0.000003   0.000001   0.000000   0.000015
     3  O    0.000000  -0.000047   0.000000   0.000000   0.000000   0.216629
     4  H   -0.000010   0.001572   0.000000  -0.000001   0.000000  -0.011736
     5  O   -0.000046   0.000000   0.000000   0.000000   0.000000   0.000087
     6  H    0.000001  -0.000002   0.000000   0.000000   0.000000  -0.000437
     7  C   -0.040058  -0.039417   0.003721   0.004048   0.000729  -0.000003
     8  C    0.361889   0.006310  -0.035986   0.000515   0.004815   0.000000
     9  C    0.005524   0.356456   0.000540  -0.038933   0.004821   0.000002
    10  C   -0.040058   0.000222   0.366790   0.004843  -0.041024   0.000000
    11  C    0.000424  -0.040353   0.004813   0.370376  -0.041183   0.000000
    12  C    0.005058   0.005193  -0.041151  -0.040769   0.368928   0.000000
    13  H    0.629690  -0.000186  -0.007105   0.000012  -0.000178   0.000000
    14  H   -0.000186   0.631006   0.000014  -0.007326  -0.000176  -0.000004
    15  H   -0.007105   0.000014   0.624233  -0.000204  -0.005957   0.000000
    16  H    0.000012  -0.007326  -0.000204   0.621566  -0.005957   0.000000
    17  H   -0.000178  -0.000176  -0.005957  -0.005957   0.630541   0.000000
    18  C    0.000000  -0.000004   0.000000   0.000000   0.000000   4.529319
    19  C    0.000000   0.000000   0.000000   0.000000   0.000000   0.526234
    20  C    0.000000  -0.000019   0.000000   0.000000   0.000000   0.516175
    21  C    0.000000   0.000000   0.000000   0.000000   0.000000  -0.017397
    22  C    0.000000   0.000001   0.000000   0.000000   0.000000  -0.012950
    23  C    0.000000   0.000000   0.000000   0.000000   0.000000  -0.040409
    24  H    0.000000   0.000000   0.000000   0.000000   0.000000  -0.039333
    25  H    0.000000   0.000683   0.000000   0.000000   0.000000  -0.039992
    26  H    0.000000   0.000000   0.000000   0.000000   0.000000   0.004055
    27  H    0.000000   0.000000   0.000000   0.000000   0.000000   0.003727
    28  H    0.000000   0.000000   0.000000   0.000000   0.000000   0.000728
    29  C    0.000002   0.000000   0.000000   0.000000   0.000000  -0.000003
    30  C    0.000000   0.000000   0.000000   0.000000   0.000000   0.000002
    31  C   -0.000029   0.000000   0.000000   0.000000   0.000000   0.000000
    32  C    0.000000   0.000000   0.000000   0.000000   0.000000   0.000000
    33  C    0.000000   0.000000   0.000000   0.000000   0.000000   0.000000
    34  C    0.000000   0.000000   0.000000   0.000000   0.000000   0.000000
    35  H    0.000000   0.000000   0.000000   0.000000   0.000000   0.000002
    36  H    0.000569   0.000000   0.000000   0.000000   0.000000   0.000000
    37  H    0.000000   0.000000   0.000000   0.000000   0.000000   0.000000
    38  H    0.000000   0.000000   0.000000   0.000000   0.000000   0.000000
    39  H    0.000000   0.000000   0.000000   0.000000   0.000000   0.000000
             19         20         21         22         23         24
     1  O   -0.000009  -0.000032   0.000000   0.000000   0.000000   0.000000
     2  H    0.000000   0.000000   0.000000   0.000000   0.000000  -0.000002
     3  O   -0.040644  -0.046817   0.002663   0.004054   0.000097  -0.002030
     4  H    0.002129  -0.002494  -0.000064   0.000182  -0.000004  -0.000236
     5  O    0.000016  -0.000006   0.000000   0.000000   0.000000  -0.000049
     6  H   -0.000629   0.000291   0.000025  -0.000012   0.000001   0.001568
     7  C    0.000000   0.000001   0.000000   0.000000   0.000000   0.000000
     8  C    0.000000   0.000000   0.000000   0.000000   0.000000   0.000000
     9  C    0.000000  -0.000022   0.000000   0.000000   0.000000   0.000000
    10  C    0.000000   0.000000   0.000000   0.000000   0.000000   0.000000
    11  C    0.000000   0.000000   0.000000   0.000000   0.000000   0.000000
    12  C    0.000000   0.000000   0.000000   0.000000   0.000000   0.000000
    13  H    0.000000   0.000000   0.000000   0.000000   0.000000   0.000000
    14  H    0.000000  -0.000019   0.000000   0.000001   0.000000   0.000000
    15  H    0.000000   0.000000   0.000000   0.000000   0.000000   0.000000
    16  H    0.000000   0.000000   0.000000   0.000000   0.000000   0.000000
    17  H    0.000000   0.000000   0.000000   0.000000   0.000000   0.000000
    18  C    0.526234   0.516175  -0.017397  -0.012950  -0.040409  -0.039333
    19  C    4.900615  -0.069466   0.534203  -0.037393  -0.038593   0.356586
    20  C   -0.069466   4.951493  -0.037407   0.506741  -0.039679   0.006320
    21  C    0.534203  -0.037407   4.798161  -0.033555   0.545321  -0.040411
    22  C   -0.037393   0.506741  -0.033555   4.821812   0.546987   0.000217
    23  C   -0.038593  -0.039679   0.545321   0.546987   4.819086   0.005208
    24  H    0.356586   0.006320  -0.040411   0.000217   0.005208   0.630664
    25  H    0.005510   0.361841   0.000427  -0.040078   0.005053  -0.000186
    26  H   -0.038880   0.000512   0.370395   0.004845  -0.040814  -0.007348
    27  H    0.000541  -0.035992   0.004810   0.366762  -0.041133   0.000014
    28  H    0.004817   0.004817  -0.041222  -0.041075   0.368869  -0.000176
    29  C    0.000002   0.000000   0.000000   0.000000   0.000000   0.000000
    30  C   -0.000021   0.000000   0.000000   0.000000   0.000000  -0.000009
    31  C    0.000000   0.000000   0.000000   0.000000   0.000000   0.000000
    32  C    0.000000   0.000000   0.000000   0.000000   0.000000   0.000001
    33  C    0.000000   0.000000   0.000000   0.000000   0.000000   0.000000
    34  C    0.000000   0.000000   0.000000   0.000000   0.000000   0.000000
    35  H   -0.000032   0.000000   0.000000   0.000000   0.000000   0.000554
    36  H    0.000000   0.000000   0.000000   0.000000   0.000000   0.000000
    37  H    0.000000   0.000000   0.000000   0.000000   0.000000   0.000000
    38  H    0.000000   0.000000   0.000000   0.000000   0.000000   0.000000
    39  H    0.000000   0.000000   0.000000   0.000000   0.000000   0.000000
             25         26         27         28         29         30
     1  O   -0.000045   0.000000   0.000000   0.000000   0.000082  -0.000006
     2  H    0.000001   0.000000   0.000000   0.000000  -0.000415   0.000277
     3  O   -0.005449  -0.000038  -0.000048   0.000001   0.000115  -0.000033
     4  H    0.001678   0.000001  -0.000003   0.000000   0.000014   0.000000
     5  O    0.000000   0.000000   0.000000   0.000000   0.216465  -0.046756
     6  H   -0.000010  -0.000001   0.000000   0.000000  -0.011773  -0.002438
     7  C    0.000001   0.000000   0.000000   0.000000  -0.000003   0.000000
     8  C    0.000000   0.000000   0.000000   0.000000   0.000001   0.000000
     9  C   -0.000040   0.000000   0.000000   0.000000   0.000000   0.000000
    10  C    0.000000   0.000000   0.000000   0.000000   0.000000   0.000000
    11  C    0.000000   0.000000   0.000000   0.000000   0.000000   0.000000
    12  C    0.000000   0.000000   0.000000   0.000000   0.000000   0.000000
    13  H    0.000000   0.000000   0.000000   0.000000   0.000002   0.000000
    14  H    0.000683   0.000000   0.000000   0.000000   0.000000   0.000000
    15  H    0.000000   0.000000   0.000000   0.000000   0.000000   0.000000
    16  H    0.000000   0.000000   0.000000   0.000000   0.000000   0.000000
    17  H    0.000000   0.000000   0.000000   0.000000   0.000000   0.000000
    18  C   -0.039992   0.004055   0.003727   0.000728  -0.000003   0.000002
    19  C    0.005510  -0.038880   0.000541   0.004817   0.000002  -0.000021
    20  C    0.361841   0.000512  -0.035992   0.004817   0.000000   0.000000
    21  C    0.000427   0.370395   0.004810  -0.041222   0.000000   0.000000
    22  C   -0.040078   0.004845   0.366762  -0.041075   0.000000   0.000000
    23  C    0.005053  -0.040814  -0.041133   0.368869   0.000000   0.000000
    24  H   -0.000186  -0.007348   0.000014  -0.000176   0.000000  -0.000009
    25  H    0.629862   0.000012  -0.007111  -0.000178   0.000000   0.000000
    26  H    0.000012   0.621664  -0.000204  -0.005950   0.000000   0.000000
    27  H   -0.007111  -0.000204   0.624397  -0.005960   0.000000   0.000000
    28  H   -0.000178  -0.005950  -0.005960   0.630785   0.000000   0.000000
    29  C    0.000000   0.000000   0.000000   0.000000   4.529144   0.515949
    30  C    0.000000   0.000000   0.000000   0.000000   0.515949   4.951809
    31  C    0.000000   0.000000   0.000000   0.000000   0.526522  -0.069573
    32  C    0.000000   0.000000   0.000000   0.000000  -0.012900   0.505809
    33  C    0.000000   0.000000   0.000000   0.000000  -0.017488  -0.037337
    34  C    0.000000   0.000000   0.000000   0.000000  -0.040404  -0.039680
    35  H    0.000000   0.000000   0.000000   0.000000  -0.039909   0.361942
    36  H    0.000000   0.000000   0.000000   0.000000  -0.039366   0.006342
    37  H    0.000000   0.000000   0.000000   0.000000   0.003718  -0.035936
    38  H    0.000000   0.000000   0.000000   0.000000   0.004054   0.000509
    39  H    0.000000   0.000000   0.000000   0.000000   0.000728   0.004813
             31         32         33         34         35         36
     1  O    0.000015   0.000000   0.000000   0.000000   0.000000  -0.000047
     2  H   -0.000623  -0.000012   0.000025   0.000001  -0.000009   0.001547
     3  O   -0.000008   0.000000   0.000000   0.000000  -0.000044   0.000000
     4  H    0.000000   0.000000   0.000000   0.000000   0.000001  -0.000001
     5  O   -0.040649   0.004073   0.002675   0.000098  -0.005350  -0.001925
     6  H    0.002122   0.000180  -0.000066  -0.000004   0.001629  -0.000241
     7  C    0.000002   0.000000   0.000000   0.000000   0.000000  -0.000003
     8  C   -0.000019   0.000000   0.000000   0.000000   0.000000  -0.000017
     9  C    0.000000   0.000000   0.000000   0.000000   0.000000   0.000000
    10  C    0.000000   0.000000   0.000000   0.000000   0.000000   0.000001
    11  C    0.000000   0.000000   0.000000   0.000000   0.000000   0.000000
    12  C    0.000000   0.000000   0.000000   0.000000   0.000000   0.000000
    13  H   -0.000029   0.000000   0.000000   0.000000   0.000000   0.000569
    14  H    0.000000   0.000000   0.000000   0.000000   0.000000   0.000000
    15  H    0.000000   0.000000   0.000000   0.000000   0.000000   0.000000
    16  H    0.000000   0.000000   0.000000   0.000000   0.000000   0.000000
    17  H    0.000000   0.000000   0.000000   0.000000   0.000000   0.000000
    18  C    0.000000   0.000000   0.000000   0.000000   0.000002   0.000000
    19  C    0.000000   0.000000   0.000000   0.000000  -0.000032   0.000000
    20  C    0.000000   0.000000   0.000000   0.000000   0.000000   0.000000
    21  C    0.000000   0.000000   0.000000   0.000000   0.000000   0.000000
    22  C    0.000000   0.000000   0.000000   0.000000   0.000000   0.000000
    23  C    0.000000   0.000000   0.000000   0.000000   0.000000   0.000000
    24  H    0.000000   0.000001   0.000000   0.000000   0.000554   0.000000
    25  H    0.000000   0.000000   0.000000   0.000000   0.000000   0.000000
    26  H    0.000000   0.000000   0.000000   0.000000   0.000000   0.000000
    27  H    0.000000   0.000000   0.000000   0.000000   0.000000   0.000000
    28  H    0.000000   0.000000   0.000000   0.000000   0.000000   0.000000
    29  C    0.526522  -0.012900  -0.017488  -0.040404  -0.039909  -0.039366
    30  C   -0.069573   0.505809  -0.037337  -0.039680   0.361942   0.006342
    31  C    4.901273  -0.037356   0.533767  -0.038651   0.005512   0.356300
    32  C   -0.037356   4.823076  -0.033622   0.546934  -0.040227   0.000213
    33  C    0.533767  -0.033622   4.798466   0.545439   0.000425  -0.040404
    34  C   -0.038651   0.546934   0.545439   4.819413   0.005061   0.005213
    35  H    0.005512  -0.040227   0.000425   0.005061   0.629748  -0.000187
    36  H    0.356300   0.000213  -0.040404   0.005213  -0.000187   0.631578
    37  H    0.000539   0.366730   0.004814  -0.041185  -0.007114   0.000014
    38  H   -0.038896   0.004845   0.370280  -0.040855   0.000012  -0.007357
    39  H    0.004816  -0.041057  -0.041216   0.368866  -0.000178  -0.000176
             37         38         39
     1  O    0.000000   0.000000   0.000000
     2  H    0.000000  -0.000001   0.000000
     3  O    0.000000   0.000000   0.000000
     4  H    0.000000   0.000000   0.000000
     5  O   -0.000048  -0.000038   0.000001
     6  H   -0.000003   0.000001   0.000000
     7  C    0.000000   0.000000   0.000000
     8  C    0.000000   0.000000   0.000000
     9  C    0.000000   0.000000   0.000000
    10  C    0.000000   0.000000   0.000000
    11  C    0.000000   0.000000   0.000000
    12  C    0.000000   0.000000   0.000000
    13  H    0.000000   0.000000   0.000000
    14  H    0.000000   0.000000   0.000000
    15  H    0.000000   0.000000   0.000000
    16  H    0.000000   0.000000   0.000000
    17  H    0.000000   0.000000   0.000000
    18  C    0.000000   0.000000   0.000000
    19  C    0.000000   0.000000   0.000000
    20  C    0.000000   0.000000   0.000000
    21  C    0.000000   0.000000   0.000000
    22  C    0.000000   0.000000   0.000000
    23  C    0.000000   0.000000   0.000000
    24  H    0.000000   0.000000   0.000000
    25  H    0.000000   0.000000   0.000000
    26  H    0.000000   0.000000   0.000000
    27  H    0.000000   0.000000   0.000000
    28  H    0.000000   0.000000   0.000000
    29  C    0.003718   0.004054   0.000728
    30  C   -0.035936   0.000509   0.004813
    31  C    0.000539  -0.038896   0.004816
    32  C    0.366730   0.004845  -0.041057
    33  C    0.004814   0.370280  -0.041216
    34  C   -0.041185  -0.040855   0.368866
    35  H   -0.007114   0.000012  -0.000178
    36  H    0.000014  -0.007357  -0.000176
    37  H    0.624616  -0.000205  -0.005970
    38  H   -0.000205   0.622077  -0.005951
    39  H   -0.005970  -0.005951   0.630937
 Mulliken atomic charges:
              1
     1  O   -0.675905
     2  H    0.351524
     3  O   -0.676818
     4  H    0.352810
     5  O   -0.678363
     6  H    0.352934
     7  C    0.365026
     8  C   -0.116118
     9  C   -0.104926
    10  C   -0.086329
    11  C   -0.085687
    12  C   -0.090333
    13  H    0.088236
    14  H    0.088364
    15  H    0.090343
    16  H    0.091866
    17  H    0.084639
    18  C    0.365189
    19  C   -0.104985
    20  C   -0.116257
    21  C   -0.085947
    22  C   -0.086538
    23  C   -0.089990
    24  H    0.088647
    25  H    0.088021
    26  H    0.091752
    27  H    0.090199
    28  H    0.084541
    29  C    0.365467
    30  C   -0.115665
    31  C   -0.105062
    32  C   -0.086687
    33  C   -0.085757
    34  C   -0.090245
    35  H    0.088163
    36  H    0.087948
    37  H    0.090031
    38  H    0.091525
    39  H    0.084387
 Sum of Mulliken charges=   0.00000
 Atomic charges with hydrogens summed into heavy atoms:
              1
     1  O   -0.324382
     2  H    0.000000
     3  O   -0.324008
     4  H    0.000000
     5  O   -0.325429
     6  H    0.000000
     7  C    0.365026
     8  C   -0.027882
     9  C   -0.016562
    10  C    0.004014
    11  C    0.006179
    12  C   -0.005694
    13  H    0.000000
    14  H    0.000000
    15  H    0.000000
    16  H    0.000000
    17  H    0.000000
    18  C    0.365189
    19  C   -0.016338
    20  C   -0.028235
    21  C    0.005804
    22  C    0.003661
    23  C   -0.005449
    24  H    0.000000
    25  H    0.000000
    26  H    0.000000
    27  H    0.000000
    28  H    0.000000
    29  C    0.365467
    30  C   -0.027502
    31  C   -0.017114
    32  C    0.003344
    33  C    0.005768
    34  C   -0.005858
    35  H    0.000000
    36  H    0.000000
    37  H    0.000000
    38  H    0.000000
    39  H    0.000000
 Sum of Mulliken charges=   0.00000
 Electronic spatial extent (au):  <R**2>= 10460.0409
 Charge=     0.0000 electrons
 Dipole moment (field-independent basis, Debye):
    X=    -0.0540    Y=    -0.0150    Z=     0.0004  Tot=     0.0560
 Quadrupole moment (field-independent basis, Debye-Ang):
   XX=  -104.1520   YY=  -104.1708   ZZ=  -130.9382
   XY=     0.0417   XZ=     0.0550   YZ=     1.0577
 Traceless Quadrupole moment (field-independent basis, Debye-Ang):
   XX=     8.9350   YY=     8.9162   ZZ=   -17.8512
   XY=     0.0417   XZ=     0.0550   YZ=     1.0577
 Octapole moment (field-independent basis, Debye-Ang**2):
  XXX=     0.5454  YYY=     2.9975  ZZZ=     0.1521  XYY=    -2.3951
  XXY=    -2.9075  XXZ=     3.2082  XZZ=     0.9285  YZZ=    -0.2092
  YYZ=    -3.5897  XYZ=     4.3160
 Hexadecapole moment (field-independent basis, Debye-Ang**3):
 XXXX= -6438.0163 YYYY= -6385.9224 ZZZZ=  -138.3739 XXXY=    -0.8468
 XXXZ=    12.4972 YYYX=     4.0655 YYYZ=     5.2446 ZZZX=     0.5114
 ZZZY=     0.7435 XXYY= -2139.6497 XXZZ= -1342.8845 YYZZ= -1335.1997
 XXYZ=    22.8919 YYXZ=   -16.1956 ZZXY=    -0.7323
 N-N= 1.421680246481D+03 E-N=-4.987876226041D+03  KE= 9.129572314946D+02

 Test job not archived.
 1|1|UNPC-UNK|SP|RB3LYP|6-31G(d,p)|C18H18O3|PCUSER|02-Oct-2017|0||#B3LY
 P 6-31G** SCF=DIRECT TEST||phenol_trimer||0,1|O,0,0.114413309,-1.04090
 5158,-0.043260103|H,0,-0.311583812,-0.198446157,-0.313915086|O,0,2.031
 473587,0.794907722,0.651687909|H,0,1.540610461,-0.049912483,0.55006278
 7|O,0,-0.325359366,1.646998915,-0.461946848|H,0,0.588106145,1.63651522
 9,-0.099747682|C,0,-0.228889695,-2.438570545,-0.09095197|C,0,-1.478313
 857,-2.859492432,-0.576848459|C,0,0.676035355,-3.420183673,0.347086486
 |C,0,-1.810904464,-4.212291341,-0.623136086|C,0,0.344023694,-4.7731332
 58,0.301047151|C,0,-0.90119339,-5.175673314,-0.184348819|H,0,-2.193270
 617,-2.118464587,-0.92062014|H,0,1.647233323,-3.117994703,0.726455356|
 H,0,-2.782866049,-4.514155588,-1.002840881|H,0,1.059802241,-5.51424899
 9,0.645162839|H,0,-1.160101154,-6.229746294,-0.220316448|C,0,3.3163963
 06,1.194708185,1.164262974|C,0,3.66665487,2.552289929,1.257118323|C,0,
 4.255537281,0.238319854,1.585768561|C,0,4.9103204,2.939588861,1.753222
 677|C,0,5.499361064,0.624996945,2.081961235|C,0,5.832710701,1.97765306
 ,2.168058762|H,0,2.956670304,3.308627459,0.937212303|H,0,4.006456109,-
 0.816428561,1.523088784|H,0,5.15907603,3.99515484,1.8157381|H,0,6.2094
 5345,-0.132225892,2.401944756|H,0,6.801756893,2.279169337,2.554625913|
 C,0,-1.266364517,2.640120194,-0.911190026|C,0,-0.88248501,3.983360901,
 -1.061763259|C,0,-2.594527746,2.293460916,-1.211425188|C,0,-1.79310362
 1,4.944882576,-1.496589381|C,0,-3.505606441,3.254528458,-1.646291529|C
 ,0,-3.109171692,4.58498842,-1.790960506|H,0,0.138684209,4.274049285,-0
 .8355375|H,0,-2.913331144,1.261507256,-1.102336041|H,0,-1.473590546,5.
 977373902,-1.605585399|H,0,-4.527325889,2.963134128,-1.872534296|H,0,-
 3.818846635,5.333967621,-2.129764843||Version=IA32W-G03RevC.02|State=1
 -A|HF=-922.408716|RMSD=5.789e-007|Dipole=0.0044453,-0.0213374,0.003264
 5|PG=C01 [X(C18H18O3)]||@


 I SUPPOSE A BABY LLAMA HAS A MMAMA AND A PPOPA.
     -- RICHARD AMOUR
 Job cpu time:  0 days  0 hours  3 minutes  8.0 seconds.
 File lengths (MBytes):  RWF=     96 Int=      0 D2E=      0 Chk=     14 Scr=      1
 Normal termination of Gaussian 03 at Mon Oct 02 13:29:04 2017.
