 Entering Link 1 = C:\G03W\l1.exe PID=      3308.
  
 Copyright (c) 1988,1990,1992,1993,1995,1998,2003,2004, Gaussian, Inc.
                  All Rights Reserved.
  
 This is the Gaussian(R) 03 program.  It is based on the
 the Gaussian(R) 98 system (copyright 1998, Gaussian, Inc.),
 the Gaussian(R) 94 system (copyright 1995, Gaussian, Inc.),
 the Gaussian 92(TM) system (copyright 1992, Gaussian, Inc.),
 the Gaussian 90(TM) system (copyright 1990, Gaussian, Inc.),
 the Gaussian 88(TM) system (copyright 1988, Gaussian, Inc.),
 the Gaussian 86(TM) system (copyright 1986, Carnegie Mellon
 University), and the Gaussian 82(TM) system (copyright 1983,
 Carnegie Mellon University). Gaussian is a federally registered
 trademark of Gaussian, Inc.
  
 This software contains proprietary and confidential information,
 including trade secrets, belonging to Gaussian, Inc.
  
 This software is provided under written license and may be
 used, copied, transmitted, or stored only in accord with that
 written license.
  
 The following legend is applicable only to US Government
 contracts under FAR:
  
                    RESTRICTED RIGHTS LEGEND
  
 Use, reproduction and disclosure by the US Government is
 subject to restrictions as set forth in subparagraphs (a)
 and (c) of the Commercial Computer Software - Restricted
 Rights clause in FAR 52.227-19.
  
 Gaussian, Inc.
 340 Quinnipiac St., Bldg. 40, Wallingford CT 06492
  
  
 ---------------------------------------------------------------
 Warning -- This program may not be used in any manner that
 competes with the business of Gaussian, Inc. or will provide
 assistance to any competitor of Gaussian, Inc.  The licensee
 of this program is prohibited from giving any competitor of
 Gaussian, Inc. access to this program.  By using this program,
 the user acknowledges that Gaussian, Inc. is engaged in the
 business of creating and licensing software in the field of
 computational chemistry and represents and warrants to the
 licensee that it is not a competitor of Gaussian, Inc. and that
 it will not use this program in any manner prohibited above.
 ---------------------------------------------------------------
  

 Cite this work as:
 Gaussian 03, Revision C.02,
 M. J. Frisch, G. W. Trucks, H. B. Schlegel, G. E. Scuseria, 
 M. A. Robb, J. R. Cheeseman, J. A. Montgomery, Jr., T. Vreven, 
 K. N. Kudin, J. C. Burant, J. M. Millam, S. S. Iyengar, J. Tomasi, 
 V. Barone, B. Mennucci, M. Cossi, G. Scalmani, N. Rega, 
 G. A. Petersson, H. Nakatsuji, M. Hada, M. Ehara, K. Toyota, 
 R. Fukuda, J. Hasegawa, M. Ishida, T. Nakajima, Y. Honda, O. Kitao, 
 H. Nakai, M. Klene, X. Li, J. E. Knox, H. P. Hratchian, J. B. Cross, 
 C. Adamo, J. Jaramillo, R. Gomperts, R. E. Stratmann, O. Yazyev, 
 A. J. Austin, R. Cammi, C. Pomelli, J. W. Ochterski, P. Y. Ayala, 
 K. Morokuma, G. A. Voth, P. Salvador, J. J. Dannenberg, 
 V. G. Zakrzewski, S. Dapprich, A. D. Daniels, M. C. Strain, 
 O. Farkas, D. K. Malick, A. D. Rabuck, K. Raghavachari, 
 J. B. Foresman, J. V. Ortiz, Q. Cui, A. G. Baboul, S. Clifford, 
 J. Cioslowski, B. B. Stefanov, G. Liu, A. Liashenko, P. Piskorz, 
 I. Komaromi, R. L. Martin, D. J. Fox, T. Keith, M. A. Al-Laham, 
 C. Y. Peng, A. Nanayakkara, M. Challacombe, P. M. W. Gill, 
 B. Johnson, W. Chen, M. W. Wong, C. Gonzalez, and J. A. Pople, 
 Gaussian, Inc., Wallingford CT, 2004.
 
 ******************************************
 Gaussian 03:  IA32W-G03RevC.02 12-Jun-2004
                02-Oct-2017 
 ******************************************
 %mem=300mb
 %chk=phenol_dimer.chk
 -------------------------------
 # B3LYP 6-31G** SCF=direct TEST
 -------------------------------
 1/38=1/1;
 2/17=6,18=5,40=1/2;
 3/5=1,6=6,7=101,11=2,16=1,25=1,30=1,74=-5/1,2,3;
 4//1;
 5/5=2,32=1,38=5/2;
 6/7=2,8=2,9=2,10=2,28=1/1;
 99/5=1,9=1/99;
 ------------
 phenol_dimer
 ------------
 Symbolic Z-matrix:
 Charge =  0 Multiplicity = 1
 8                    -1.18616   1.65903  -0.39499 
 1                    -0.33323   1.31437  -0.69959 
 8                     0.4602   -0.44532   0.27744 
 1                    -0.39275  -0.09889   0.58002 
 6                     1.72765  -0.9601   -0.17219 
 6                     2.7665   -1.21839   0.73799 
 6                     1.96068  -1.21839  -1.53355 
 6                     3.99344  -1.71668   0.30308 
 6                     3.1874   -1.71668  -1.96907 
 6                     4.20976  -1.96823  -1.0527 
 1                     2.60883  -1.02628   1.79473 
 1                     1.17232  -1.02628  -2.25469 
 1                     4.78199  -1.90875   1.0251 
 1                     3.34467  -1.90875  -3.02661 
 1                     5.16563  -2.35646  -1.39179 
 6                    -2.4536    2.17118   0.05765 
 6                    -3.49484   2.42815  -0.85017 
 6                    -2.68423   2.42815   1.41967 
 6                    -4.72177   2.9239   -0.41234 
 6                    -3.91094   2.9239    1.85811 
 6                    -4.93569   3.17416   0.94406 
 1                    -3.33905   2.23702  -1.90736 
 1                    -1.89399   2.23702   2.13902 
 1                    -5.5122    3.11499  -1.13256 
 1                    -4.06632   3.11499   2.9161 
 1                    -5.89155   3.56042   1.28542 
 
                          Input orientation:                          
 ---------------------------------------------------------------------
 Center     Atomic     Atomic              Coordinates (Angstroms)
 Number     Number      Type              X           Y           Z
 ---------------------------------------------------------------------
    1          8             0       -1.186158    1.659025   -0.394989
    2          1             0       -0.333231    1.314368   -0.699590
    3          8             0        0.460201   -0.445320    0.277437
    4          1             0       -0.392748   -0.098889    0.580017
    5          6             0        1.727654   -0.960104   -0.172186
    6          6             0        2.766498   -1.218393    0.737990
    7          6             0        1.960678   -1.218393   -1.533553
    8          6             0        3.993440   -1.716680    0.303081
    9          6             0        3.187404   -1.716680   -1.969072
   10          6             0        4.209755   -1.968227   -1.052701
   11          1             0        2.608832   -1.026276    1.794729
   12          1             0        1.172317   -1.026276   -2.254693
   13          1             0        4.781990   -1.908754    1.025095
   14          1             0        3.344665   -1.908754   -3.026608
   15          1             0        5.165626   -2.356460   -1.391792
   16          6             0       -2.453602    2.171183    0.057646
   17          6             0       -3.494839    2.428155   -0.850166
   18          6             0       -2.684226    2.428155    1.419670
   19          6             0       -4.721775    2.923900   -0.412341
   20          6             0       -3.910943    2.923900    1.858105
   21          6             0       -4.935688    3.174163    0.944060
   22          1             0       -3.339053    2.237017   -1.907361
   23          1             0       -1.893992    2.237017    2.139019
   24          1             0       -5.512199    3.114994   -1.132563
   25          1             0       -4.066324    3.114994    2.916097
   26          1             0       -5.891553    3.560415    1.285422
 ---------------------------------------------------------------------
                    Distance matrix (angstroms):
                    1          2          3          4          5
     1  O    0.000000
     2  H    0.969048   0.000000
     3  O    2.755163   2.163474   0.000000
     4  H    2.161110   1.907415   0.969067   0.000000
     5  C    3.924255   3.114261   1.440000   2.409067   0.000000
     6  C    5.018632   4.253215   2.475632   3.355455   1.405109
     7  C    4.413438   3.517441   2.475632   3.355455   1.405109
     8  C    6.221811   5.377052   3.755103   4.683224   2.435585
     9  C    5.744664   4.815985   3.755103   4.683224   2.435585
    10  C    6.534939   5.615945   4.260008   5.229075   2.820008
    11  H    5.138838   4.511760   2.693752   3.368242   2.156295
    12  H    4.028864   3.188046   2.693752   3.368242   2.156295
    13  H    7.096793   6.287173   4.623688   5.500147   3.415024
    14  H    6.338993   5.415760   4.623688   5.500147   3.415024
    15  H    7.580429   6.647673   5.346009   6.315076   3.906009
    16  C    1.440000   2.409048   3.922327   3.110180   5.228832
    17  C    2.475632   3.355438   5.017040   4.249040   6.262139
    18  C    2.475632   3.355438   4.410099   3.513095   5.786103
    19  C    3.755103   4.683206   6.219349   5.372383   7.532482
    20  C    3.755103   4.683206   5.740823   4.811284   7.141522
    21  C    4.260008   5.229057   6.531513   5.611034   7.920751
    22  H    2.693752   3.368228   5.138347   4.508239   6.237302
    23  H    2.693752   3.368228   4.025251   3.184443   5.355331
    24  H    4.623688   5.500130   7.094610   6.282575   8.363266
    25  H    4.623688   5.500130   6.334650   5.411236   7.727489
    26  H    5.346009   6.315057   7.576723   6.642662   8.978420
                    6          7          8          9         10
     6  C    0.000000
     7  C    2.410239   0.000000
     8  C    1.393852   2.784535   0.000000
     9  C    2.784535   1.393852   2.410886   0.000000
    10  C    2.419053   2.419053   1.395784   1.395784   0.000000
    11  H    1.085571   3.396243   2.149142   3.870090   3.399718
    12  H    3.396243   1.085571   3.870090   2.149142   3.399718
    13  H    2.149706   3.870798   1.086281   3.397739   2.155975
    14  H    3.870798   2.149706   3.397739   1.086281   2.155975
    15  H    3.403966   3.403966   2.157761   2.157761   1.086000
    16  C    6.261114   5.788524   7.532601   7.144510   7.922621
    17  C    7.417809   6.597499   8.636201   7.942543   8.872991
    18  C    6.593359   6.602573   7.938366   7.946022   8.542117
    19  C    8.634586   7.941718   9.899585   9.301263  10.203685
    20  C    7.937346   7.945934   9.296901   9.304235   9.917229
    21  C    8.869086   8.543593  10.201007   9.919239  10.680373
    22  H    7.497699   6.337724   8.618772   7.630870   8.683261
    23  H    5.968493   6.347135   7.325589   7.637324   8.070123
    24  H    9.529640   8.647712  10.759337   9.986386  10.970957
    25  H    8.379132   8.654616   9.753601   9.991322  10.492091
    26  H    9.904471   9.614633  11.248370  10.993950  11.750282
                   11         12         13         14         15
    11  H    0.000000
    12  H    4.296672   0.000000
    13  H    2.468546   4.956361   0.000000
    14  H    4.956361   2.468546   4.299093   0.000000
    15  H    4.296569   4.296569   2.487762   2.487762   0.000000
    16  C    6.234536   5.358913   8.362753   7.731651   8.980705
    17  C    7.495556   5.973955   9.530545   8.385971   9.909065
    18  C    6.331684   6.348776   8.643428   8.655963   9.613378
    19  C    8.614688   7.330653  10.758360   9.759938  11.251765
    20  C    7.623344   7.639275   9.980758   9.992939  10.992185
    21  C    8.676815   8.073626  10.967036  10.496023  11.750768
    22  H    7.728641   5.578726   9.577998   7.944320   9.679639
    23  H    5.571629   6.273439   7.937064   8.444801   9.132627
    24  H    9.574461   7.943050  11.656065  10.357099  12.000831
    25  H    7.935067   8.445741  10.349231  10.746002  11.563893
    26  H    9.672315   9.136105  11.996004  11.567764  12.823342
                   16         17         18         19         20
    16  C    0.000000
    17  C    1.405109   0.000000
    18  C    1.405109   2.410239   0.000000
    19  C    2.435585   1.393852   2.784535   0.000000
    20  C    2.435585   2.784535   1.393852   2.410886   0.000000
    21  C    2.820008   2.419053   2.419053   1.395784   1.395784
    22  H    2.156295   1.085571   3.396243   2.149142   3.870090
    23  H    2.156295   3.396243   1.085571   3.870090   2.149142
    24  H    3.415024   2.149706   3.870798   1.086281   3.397739
    25  H    3.415024   3.870798   2.149706   3.397739   1.086281
    26  H    3.906009   3.403966   3.403966   2.157761   2.157761
                   21         22         23         24         25
    21  C    0.000000
    22  H    3.399718   0.000000
    23  H    3.399718   4.296672   0.000000
    24  H    2.155975   2.468546   4.956361   0.000000
    25  H    2.155975   4.956361   2.468546   4.299093   0.000000
    26  H    1.086000   4.296569   4.296569   2.487762   2.487762
                   26
    26  H    0.000000
 Stoichiometry    C12H12O2
 Framework group  C1[X(C12H12O2)]
 Deg. of freedom    72
 Full point group                 C1      NOp   1
 Largest Abelian subgroup         C1      NOp   1
 Largest concise Abelian subgroup C1      NOp   1
                         Standard orientation:                         
 ---------------------------------------------------------------------
 Center     Atomic     Atomic              Coordinates (Angstroms)
 Number     Number      Type              X           Y           Z
 ---------------------------------------------------------------------
    1          8             0        1.193412   -0.452900    0.524045
    2          1             0        0.252553   -0.613527    0.691491
    3          8             0       -1.191850    0.448100   -0.519816
    4          1             0       -0.250335    0.606771   -0.685538
    5          6             0       -2.590909    0.212321   -0.273560
    6          6             0       -3.478547    1.281891   -0.067530
    7          6             0       -3.107204   -1.093850   -0.232477
    8          6             0       -4.832821    1.053987    0.170857
    9          6             0       -4.461377   -1.322393    0.005866
   10          6             0       -5.330741   -0.249415    0.208693
   11          1             0       -3.101740    2.299600   -0.094882
   12          1             0       -2.439754   -1.935574   -0.388929
   13          1             0       -5.500288    1.896604    0.327349
   14          1             0       -4.837929   -2.340957    0.033137
   15          1             0       -6.385865   -0.427233    0.394411
   16          6             0        2.591523   -0.214208    0.275223
   17          6             0        3.480830   -1.281888    0.066604
   18          6             0        3.105197    1.092997    0.234152
   19          6             0        4.834186   -1.051165   -0.174267
   20          6             0        4.458452    1.324359   -0.006674
   21          6             0        5.329498    0.253232   -0.212056
   22          1             0        3.106055   -2.300349    0.093897
   23          1             0        2.436423    1.933298    0.392580
   24          1             0        5.502980   -1.892360   -0.332735
   25          1             0        4.832971    2.343673   -0.033885
   26          1             0        6.383906    0.433246   -0.399710
 ---------------------------------------------------------------------
 Rotational constants (GHZ):      2.5396679      0.1881455      0.1770730
 Standard basis: 6-31G(d,p) (6D, 7F)
 There are   270 symmetry adapted basis functions of A   symmetry.
 Integral buffers will be    262144 words long.
 Raffenetti 2 integral format.
 Two-electron integral symmetry is turned on.
   270 basis functions,   476 primitive gaussians,   270 cartesian basis functions
    50 alpha electrons       50 beta electrons
       nuclear repulsion energy       739.8680279729 Hartrees.
 NAtoms=   26 NActive=   26 NUniq=   26 SFac= 1.00D+00 NAtFMM=   60 Big=F
 One-electron integrals computed using PRISM.
 NBasis=   270 RedAO= T  NBF=   270
 NBsUse=   270 1.00D-06 NBFU=   270
 Harris functional with IExCor=  402 diagonalized for initial guess.
 ExpMin= 1.61D-01 ExpMax= 5.48D+03 ExpMxC= 8.25D+02 IAcc=1 IRadAn=         1 AccDes= 1.00D-06
 HarFok:  IExCor= 402 AccDes= 1.00D-06 IRadAn=         1 IDoV=1
 ScaDFX=  1.000000  1.000000  1.000000  1.000000
 Initial guess orbital symmetries:
       Occupied  (A) (A) (A) (A) (A) (A) (A) (A) (A) (A) (A) (A)
                 (A) (A) (A) (A) (A) (A) (A) (A) (A) (A) (A) (A)
                 (A) (A) (A) (A) (A) (A) (A) (A) (A) (A) (A) (A)
                 (A) (A) (A) (A) (A) (A) (A) (A) (A) (A) (A) (A)
                 (A) (A)
       Virtual   (A) (A) (A) (A) (A) (A) (A) (A) (A) (A) (A) (A)
                 (A) (A) (A) (A) (A) (A) (A) (A) (A) (A) (A) (A)
                 (A) (A) (A) (A) (A) (A) (A) (A) (A) (A) (A) (A)
                 (A) (A) (A) (A) (A) (A) (A) (A) (A) (A) (A) (A)
                 (A) (A) (A) (A) (A) (A) (A) (A) (A) (A) (A) (A)
                 (A) (A) (A) (A) (A) (A) (A) (A) (A) (A) (A) (A)
                 (A) (A) (A) (A) (A) (A) (A) (A) (A) (A) (A) (A)
                 (A) (A) (A) (A) (A) (A) (A) (A) (A) (A) (A) (A)
                 (A) (A) (A) (A) (A) (A) (A) (A) (A) (A) (A) (A)
                 (A) (A) (A) (A) (A) (A) (A) (A) (A) (A) (A) (A)
                 (A) (A) (A) (A) (A) (A) (A) (A) (A) (A) (A) (A)
                 (A) (A) (A) (A) (A) (A) (A) (A) (A) (A) (A) (A)
                 (A) (A) (A) (A) (A) (A) (A) (A) (A) (A) (A) (A)
                 (A) (A) (A) (A) (A) (A) (A) (A) (A) (A) (A) (A)
                 (A) (A) (A) (A) (A) (A) (A) (A) (A) (A) (A) (A)
                 (A) (A) (A) (A) (A) (A) (A) (A) (A) (A) (A) (A)
                 (A) (A) (A) (A) (A) (A) (A) (A) (A) (A) (A) (A)
                 (A) (A) (A) (A) (A) (A) (A) (A) (A) (A) (A) (A)
                 (A) (A) (A) (A)
 The electronic state of the initial guess is 1-A.
 Warning!  Cutoffs for single-point calculations used.
 Requested convergence on RMS density matrix=1.00D-04 within 128 cycles.
 Requested convergence on MAX density matrix=1.00D-02.
 Requested convergence on             energy=5.00D-05.
 No special actions if energy rises.
 SCF Done:  E(RB+HF-LYP) =  -614.853584494     A.U. after    7 cycles
             Convg  =    0.2860D-05             -V/T =  2.0104
             S**2   =   0.0000

 **********************************************************************

            Population analysis using the SCF density.

 **********************************************************************

 Orbital symmetries:
       Occupied  (A) (A) (A) (A) (A) (A) (A) (A) (A) (A) (A) (A)
                 (A) (A) (A) (A) (A) (A) (A) (A) (A) (A) (A) (A)
                 (A) (A) (A) (A) (A) (A) (A) (A) (A) (A) (A) (A)
                 (A) (A) (A) (A) (A) (A) (A) (A) (A) (A) (A) (A)
                 (A) (A)
       Virtual   (A) (A) (A) (A) (A) (A) (A) (A) (A) (A) (A) (A)
                 (A) (A) (A) (A) (A) (A) (A) (A) (A) (A) (A) (A)
                 (A) (A) (A) (A) (A) (A) (A) (A) (A) (A) (A) (A)
                 (A) (A) (A) (A) (A) (A) (A) (A) (A) (A) (A) (A)
                 (A) (A) (A) (A) (A) (A) (A) (A) (A) (A) (A) (A)
                 (A) (A) (A) (A) (A) (A) (A) (A) (A) (A) (A) (A)
                 (A) (A) (A) (A) (A) (A) (A) (A) (A) (A) (A) (A)
                 (A) (A) (A) (A) (A) (A) (A) (A) (A) (A) (A) (A)
                 (A) (A) (A) (A) (A) (A) (A) (A) (A) (A) (A) (A)
                 (A) (A) (A) (A) (A) (A) (A) (A) (A) (A) (A) (A)
                 (A) (A) (A) (A) (A) (A) (A) (A) (A) (A) (A) (A)
                 (A) (A) (A) (A) (A) (A) (A) (A) (A) (A) (A) (A)
                 (A) (A) (A) (A) (A) (A) (A) (A) (A) (A) (A) (A)
                 (A) (A) (A) (A) (A) (A) (A) (A) (A) (A) (A) (A)
                 (A) (A) (A) (A) (A) (A) (A) (A) (A) (A) (A) (A)
                 (A) (A) (A) (A) (A) (A) (A) (A) (A) (A) (A) (A)
                 (A) (A) (A) (A) (A) (A) (A) (A) (A) (A) (A) (A)
                 (A) (A) (A) (A) (A) (A) (A) (A) (A) (A) (A) (A)
                 (A) (A) (A) (A)
 The electronic state is 1-A.
 Alpha  occ. eigenvalues --  -19.14246 -19.14230 -10.27521 -10.27512 -10.19341
 Alpha  occ. eigenvalues --  -10.19334 -10.19295 -10.19289 -10.19097 -10.19089
 Alpha  occ. eigenvalues --  -10.18988 -10.18981 -10.18633 -10.18626  -1.00514
 Alpha  occ. eigenvalues --   -0.99261  -0.85047  -0.84918  -0.74615  -0.74608
 Alpha  occ. eigenvalues --   -0.74586  -0.74208  -0.62765  -0.61870  -0.60673
 Alpha  occ. eigenvalues --   -0.60666  -0.55494  -0.55025  -0.49405  -0.49202
 Alpha  occ. eigenvalues --   -0.45682  -0.45671  -0.44238  -0.44226  -0.42029
 Alpha  occ. eigenvalues --   -0.42022  -0.38938  -0.38755  -0.36552  -0.36475
 Alpha  occ. eigenvalues --   -0.35202  -0.35162  -0.32682  -0.32279  -0.28986
 Alpha  occ. eigenvalues --   -0.28924  -0.25189  -0.25183  -0.22598  -0.22349
 Alpha virt. eigenvalues --   -0.00169  -0.00152   0.00620   0.00669   0.04033
 Alpha virt. eigenvalues --    0.04496   0.09534   0.10859   0.14268   0.14280
 Alpha virt. eigenvalues --    0.15233   0.16070   0.16193   0.16569   0.18311
 Alpha virt. eigenvalues --    0.18506   0.18715   0.18786   0.22251   0.23768
 Alpha virt. eigenvalues --    0.28084   0.30097   0.30449   0.30459   0.33342
 Alpha virt. eigenvalues --    0.33798   0.33900   0.33959   0.48205   0.48289
 Alpha virt. eigenvalues --    0.49454   0.49535   0.52235   0.52303   0.54770
 Alpha virt. eigenvalues --    0.54914   0.55463   0.55496   0.57064   0.57854
 Alpha virt. eigenvalues --    0.59283   0.59297   0.59771   0.59820   0.60282
 Alpha virt. eigenvalues --    0.60589   0.61156   0.61211   0.61556   0.61563
 Alpha virt. eigenvalues --    0.64140   0.64435   0.66296   0.66377   0.67232
 Alpha virt. eigenvalues --    0.67332   0.75463   0.75487   0.80429   0.80773
 Alpha virt. eigenvalues --    0.81723   0.81791   0.82839   0.82904   0.84112
 Alpha virt. eigenvalues --    0.84328   0.86029   0.87246   0.88752   0.88819
 Alpha virt. eigenvalues --    0.90405   0.91084   0.91672   0.92319   0.94198
 Alpha virt. eigenvalues --    0.95096   0.96569   0.99042   0.99520   1.01057
 Alpha virt. eigenvalues --    1.03065   1.07896   1.08823   1.09467   1.11762
 Alpha virt. eigenvalues --    1.15603   1.16467   1.16696   1.18054   1.18947
 Alpha virt. eigenvalues --    1.24923   1.24953   1.26964   1.28000   1.30632
 Alpha virt. eigenvalues --    1.32403   1.35787   1.38508   1.40325   1.40344
 Alpha virt. eigenvalues --    1.41709   1.41749   1.41871   1.42018   1.43129
 Alpha virt. eigenvalues --    1.43808   1.44589   1.50089   1.65244   1.66324
 Alpha virt. eigenvalues --    1.75595   1.75640   1.76505   1.76514   1.79720
 Alpha virt. eigenvalues --    1.80347   1.81799   1.83067   1.83395   1.84188
 Alpha virt. eigenvalues --    1.85503   1.85784   1.86221   1.87906   1.92290
 Alpha virt. eigenvalues --    1.92317   1.93610   1.94005   1.97085   1.97099
 Alpha virt. eigenvalues --    1.97367   1.97541   1.99469   1.99621   2.00245
 Alpha virt. eigenvalues --    2.00292   2.01585   2.02932   2.08737   2.08831
 Alpha virt. eigenvalues --    2.10686   2.11934   2.13613   2.16368   2.28601
 Alpha virt. eigenvalues --    2.28651   2.30340   2.30502   2.34436   2.34877
 Alpha virt. eigenvalues --    2.36714   2.36737   2.38016   2.38110   2.41043
 Alpha virt. eigenvalues --    2.41049   2.43109   2.43602   2.44097   2.44159
 Alpha virt. eigenvalues --    2.45347   2.45771   2.47761   2.47841   2.50718
 Alpha virt. eigenvalues --    2.51922   2.52492   2.52649   2.57050   2.58113
 Alpha virt. eigenvalues --    2.59553   2.59559   2.65072   2.65079   2.66033
 Alpha virt. eigenvalues --    2.67451   2.70355   2.72133   2.72141   2.74294
 Alpha virt. eigenvalues --    2.82162   2.82517   2.83551   2.85988   2.86930
 Alpha virt. eigenvalues --    2.87878   3.05083   3.05226   3.07000   3.07575
 Alpha virt. eigenvalues --    3.18636   3.18698   3.23649   3.23654   3.24644
 Alpha virt. eigenvalues --    3.24656   3.37966   3.38045   3.39611   3.39834
 Alpha virt. eigenvalues --    3.50485   3.50498   3.66132   3.73930   3.86851
 Alpha virt. eigenvalues --    3.87368   4.12245   4.12279   4.15579   4.15589
 Alpha virt. eigenvalues --    4.19817   4.19844   4.34182   4.36179   4.43294
 Alpha virt. eigenvalues --    4.43301   4.53759   4.54181   4.89849   4.90155
          Condensed to atoms (all electrons):
              1          2          3          4          5          6
     1  O    8.310869   0.288482  -0.017265   0.037174   0.000029  -0.000007
     2  H    0.288482   0.334151   0.037012  -0.008784   0.000425  -0.000043
     3  O   -0.017265   0.037012   8.311035   0.288386   0.176104  -0.037430
     4  H    0.037174  -0.008784   0.288386   0.334167  -0.018028   0.000781
     5  C    0.000029   0.000425   0.176104  -0.018028   4.542753   0.531800
     6  C   -0.000007  -0.000043  -0.037430   0.000781   0.531800   4.909976
     7  C    0.000033  -0.000401  -0.038764   0.001925   0.527461  -0.072738
     8  C    0.000000  -0.000009   0.003671  -0.000012  -0.020169   0.509542
     9  C    0.000000   0.000053   0.003689  -0.000077  -0.020799  -0.034253
    10  C    0.000000   0.000002   0.000133  -0.000003  -0.041143  -0.039600
    11  H    0.000000  -0.000017  -0.001322   0.000318  -0.037568   0.359968
    12  H    0.000000   0.000697  -0.001246   0.000051  -0.038932   0.005557
    13  H    0.000000   0.000000  -0.000046   0.000001   0.004160  -0.036512
    14  H    0.000000  -0.000001  -0.000045   0.000002   0.004137   0.000393
    15  H    0.000000   0.000000   0.000001   0.000000   0.000655   0.004787
    16  C    0.175942  -0.018028   0.000028   0.000428  -0.000015   0.000000
    17  C   -0.037420   0.000783  -0.000007  -0.000044   0.000000   0.000000
    18  C   -0.038763   0.001926   0.000033  -0.000403  -0.000001   0.000000
    19  C    0.003670  -0.000012   0.000000  -0.000009   0.000000   0.000000
    20  C    0.003689  -0.000077   0.000000   0.000053   0.000000   0.000000
    21  C    0.000133  -0.000003   0.000000   0.000002   0.000000   0.000000
    22  H   -0.001320   0.000318   0.000000  -0.000017   0.000000   0.000000
    23  H   -0.001255   0.000052   0.000001   0.000700   0.000000   0.000000
    24  H   -0.000046   0.000001   0.000000   0.000000   0.000000   0.000000
    25  H   -0.000045   0.000002   0.000000  -0.000001   0.000000   0.000000
    26  H    0.000001   0.000000   0.000000   0.000000   0.000000   0.000000
              7          8          9         10         11         12
     1  O    0.000033   0.000000   0.000000   0.000000   0.000000   0.000000
     2  H   -0.000401  -0.000009   0.000053   0.000002  -0.000017   0.000697
     3  O   -0.038764   0.003671   0.003689   0.000133  -0.001322  -0.001246
     4  H    0.001925  -0.000012  -0.000077  -0.000003   0.000318   0.000051
     5  C    0.527461  -0.020169  -0.020799  -0.041143  -0.037568  -0.038932
     6  C   -0.072738   0.509542  -0.034253  -0.039600   0.359968   0.005557
     7  C    4.925729  -0.035010   0.507759  -0.039335   0.005596   0.357593
     8  C   -0.035010   4.828015  -0.035742   0.545142  -0.039838   0.000331
     9  C    0.507759  -0.035742   4.826980   0.546011   0.000282  -0.038072
    10  C   -0.039335   0.545142   0.546011   4.822995   0.005298   0.005211
    11  H    0.005596  -0.039838   0.000282   0.005298   0.622243  -0.000199
    12  H    0.357593   0.000331  -0.038072   0.005211  -0.000199   0.627456
    13  H    0.000350   0.368410   0.004891  -0.042065  -0.007674   0.000013
    14  H   -0.036410   0.004820   0.368169  -0.041556   0.000013  -0.007628
    15  H    0.004880  -0.041208  -0.041258   0.368895  -0.000171  -0.000174
    16  C   -0.000001   0.000000   0.000000   0.000000   0.000000   0.000000
    17  C    0.000000   0.000000   0.000000   0.000000   0.000000   0.000000
    18  C    0.000000   0.000000   0.000000   0.000000   0.000000   0.000000
    19  C    0.000000   0.000000   0.000000   0.000000   0.000000   0.000000
    20  C    0.000000   0.000000   0.000000   0.000000   0.000000   0.000000
    21  C    0.000000   0.000000   0.000000   0.000000   0.000000   0.000000
    22  H    0.000000   0.000000   0.000000   0.000000   0.000000   0.000000
    23  H    0.000000   0.000000   0.000000   0.000000   0.000000   0.000000
    24  H    0.000000   0.000000   0.000000   0.000000   0.000000   0.000000
    25  H    0.000000   0.000000   0.000000   0.000000   0.000000   0.000000
    26  H    0.000000   0.000000   0.000000   0.000000   0.000000   0.000000
             13         14         15         16         17         18
     1  O    0.000000   0.000000   0.000000   0.175942  -0.037420  -0.038763
     2  H    0.000000  -0.000001   0.000000  -0.018028   0.000783   0.001926
     3  O   -0.000046  -0.000045   0.000001   0.000028  -0.000007   0.000033
     4  H    0.000001   0.000002   0.000000   0.000428  -0.000044  -0.000403
     5  C    0.004160   0.004137   0.000655  -0.000015   0.000000  -0.000001
     6  C   -0.036512   0.000393   0.004787   0.000000   0.000000   0.000000
     7  C    0.000350  -0.036410   0.004880  -0.000001   0.000000   0.000000
     8  C    0.368410   0.004820  -0.041208   0.000000   0.000000   0.000000
     9  C    0.004891   0.368169  -0.041258   0.000000   0.000000   0.000000
    10  C   -0.042065  -0.041556   0.368895   0.000000   0.000000   0.000000
    11  H   -0.007674   0.000013  -0.000171   0.000000   0.000000   0.000000
    12  H    0.000013  -0.007628  -0.000174   0.000000   0.000000   0.000000
    13  H    0.623974  -0.000210  -0.005950   0.000000   0.000000   0.000000
    14  H   -0.000210   0.623521  -0.005948   0.000000   0.000000   0.000000
    15  H   -0.005950  -0.005948   0.631621   0.000000   0.000000   0.000000
    16  C    0.000000   0.000000   0.000000   4.542918   0.531872   0.527433
    17  C    0.000000   0.000000   0.000000   0.531872   4.909765  -0.072709
    18  C    0.000000   0.000000   0.000000   0.527433  -0.072709   4.925727
    19  C    0.000000   0.000000   0.000000  -0.020189   0.509615  -0.035019
    20  C    0.000000   0.000000   0.000000  -0.020796  -0.034259   0.507747
    21  C    0.000000   0.000000   0.000000  -0.041141  -0.039601  -0.039326
    22  H    0.000000   0.000000   0.000000  -0.037576   0.359975   0.005597
    23  H    0.000000   0.000000   0.000000  -0.038933   0.005553   0.357619
    24  H    0.000000   0.000000   0.000000   0.004161  -0.036511   0.000350
    25  H    0.000000   0.000000   0.000000   0.004136   0.000393  -0.036404
    26  H    0.000000   0.000000   0.000000   0.000655   0.004787   0.004880
             19         20         21         22         23         24
     1  O    0.003670   0.003689   0.000133  -0.001320  -0.001255  -0.000046
     2  H   -0.000012  -0.000077  -0.000003   0.000318   0.000052   0.000001
     3  O    0.000000   0.000000   0.000000   0.000000   0.000001   0.000000
     4  H   -0.000009   0.000053   0.000002  -0.000017   0.000700   0.000000
     5  C    0.000000   0.000000   0.000000   0.000000   0.000000   0.000000
     6  C    0.000000   0.000000   0.000000   0.000000   0.000000   0.000000
     7  C    0.000000   0.000000   0.000000   0.000000   0.000000   0.000000
     8  C    0.000000   0.000000   0.000000   0.000000   0.000000   0.000000
     9  C    0.000000   0.000000   0.000000   0.000000   0.000000   0.000000
    10  C    0.000000   0.000000   0.000000   0.000000   0.000000   0.000000
    11  H    0.000000   0.000000   0.000000   0.000000   0.000000   0.000000
    12  H    0.000000   0.000000   0.000000   0.000000   0.000000   0.000000
    13  H    0.000000   0.000000   0.000000   0.000000   0.000000   0.000000
    14  H    0.000000   0.000000   0.000000   0.000000   0.000000   0.000000
    15  H    0.000000   0.000000   0.000000   0.000000   0.000000   0.000000
    16  C   -0.020189  -0.020796  -0.041141  -0.037576  -0.038933   0.004161
    17  C    0.509615  -0.034259  -0.039601   0.359975   0.005553  -0.036511
    18  C   -0.035019   0.507747  -0.039326   0.005597   0.357619   0.000350
    19  C    4.827945  -0.035735   0.545140  -0.039828   0.000331   0.368419
    20  C   -0.035735   4.826965   0.546006   0.000282  -0.038058   0.004891
    21  C    0.545140   0.546006   4.822954   0.005298   0.005209  -0.042062
    22  H   -0.039828   0.000282   0.005298   0.622198  -0.000199  -0.007674
    23  H    0.000331  -0.038058   0.005209  -0.000199   0.627325   0.000013
    24  H    0.368419   0.004891  -0.042062  -0.007674   0.000013   0.623921
    25  H    0.004819   0.368176  -0.041548   0.000013  -0.007625  -0.000210
    26  H   -0.041206  -0.041255   0.368900  -0.000171  -0.000174  -0.005949
             25         26
     1  O   -0.000045   0.000001
     2  H    0.000002   0.000000
     3  O    0.000000   0.000000
     4  H   -0.000001   0.000000
     5  C    0.000000   0.000000
     6  C    0.000000   0.000000
     7  C    0.000000   0.000000
     8  C    0.000000   0.000000
     9  C    0.000000   0.000000
    10  C    0.000000   0.000000
    11  H    0.000000   0.000000
    12  H    0.000000   0.000000
    13  H    0.000000   0.000000
    14  H    0.000000   0.000000
    15  H    0.000000   0.000000
    16  C    0.004136   0.000655
    17  C    0.000393   0.004787
    18  C   -0.036404   0.004880
    19  C    0.004819  -0.041206
    20  C    0.368176  -0.041255
    21  C   -0.041548   0.368900
    22  H    0.000013  -0.000171
    23  H   -0.007625  -0.000174
    24  H   -0.000210  -0.005949
    25  H    0.623451  -0.005947
    26  H   -0.005947   0.631569
 Mulliken atomic charges:
              1
     1  O   -0.723901
     2  H    0.363474
     3  O   -0.723967
     4  H    0.363392
     5  C    0.389131
     6  C   -0.102222
     7  C   -0.108668
     8  C   -0.087944
     9  C   -0.087632
    10  C   -0.089984
    11  H    0.093071
    12  H    0.089342
    13  H    0.090658
    14  H    0.090743
    15  H    0.083871
    16  C    0.389107
    17  C   -0.102194
    18  C   -0.108686
    19  C   -0.087942
    20  C   -0.087629
    21  C   -0.089961
    22  H    0.093106
    23  H    0.089440
    24  H    0.090696
    25  H    0.090789
    26  H    0.083909
 Sum of Mulliken charges=   0.00000
 Atomic charges with hydrogens summed into heavy atoms:
              1
     1  O   -0.360426
     2  H    0.000000
     3  O   -0.360575
     4  H    0.000000
     5  C    0.389131
     6  C   -0.009151
     7  C   -0.019326
     8  C    0.002713
     9  C    0.003112
    10  C   -0.006113
    11  H    0.000000
    12  H    0.000000
    13  H    0.000000
    14  H    0.000000
    15  H    0.000000
    16  C    0.389107
    17  C   -0.009088
    18  C   -0.019246
    19  C    0.002754
    20  C    0.003160
    21  C   -0.006052
    22  H    0.000000
    23  H    0.000000
    24  H    0.000000
    25  H    0.000000
    26  H    0.000000
 Sum of Mulliken charges=   0.00000
 Electronic spatial extent (au):  <R**2>=  5752.8549
 Charge=     0.0000 electrons
 Dipole moment (field-independent basis, Debye):
    X=     0.0059    Y=    -0.0015    Z=     0.0017  Tot=     0.0064
 Quadrupole moment (field-independent basis, Debye-Ang):
   XX=   -69.8793   YY=   -72.2094   ZZ=   -86.2957
   XY=     0.9443   XZ=    -3.6920   YZ=     0.0476
 Traceless Quadrupole moment (field-independent basis, Debye-Ang):
   XX=     6.2488   YY=     3.9187   ZZ=   -10.1675
   XY=     0.9443   XZ=    -3.6920   YZ=     0.0476
 Octapole moment (field-independent basis, Debye-Ang**2):
  XXX=     0.0779  YYY=    -0.0140  ZZZ=     0.0386  XYY=     0.0066
  XXY=     0.0073  XXZ=    -0.1137  XZZ=     0.0232  YZZ=    -0.0202
  YYZ=     0.0120  XYZ=     0.0199
 Hexadecapole moment (field-independent basis, Debye-Ang**3):
 XXXX= -6540.0865 YYYY=  -551.9647 ZZZZ=  -124.4366 XXXY=   -11.9227
 XXXZ=  -121.4139 YYYX=    -1.6257 YYYZ=     1.2717 ZZZX=     4.8045
 ZZZY=    -3.4821 XXYY= -1166.3274 XXZZ= -1342.8185 YYZZ=  -129.8150
 XXYZ=    10.8014 YYXZ=    -3.4204 ZZXY=    -2.3053
 N-N= 7.398680279729D+02 E-N=-2.909551794095D+03  KE= 6.085178121884D+02

 Test job not archived.
 1|1|UNPC-UNK|SP|RB3LYP|6-31G(d,p)|C12H12O2|PCUSER|02-Oct-2017|0||# B3L
 YP 6-31G** SCF=DIRECT TEST||phenol_dimer||0,1|O,0,-1.186158,1.659025,-
 0.394989|H,0,-0.333231,1.314368,-0.69959|O,0,0.460201,-0.44532,0.27743
 7|H,0,-0.392748,-0.098889,0.580017|C,0,1.727653511,-0.960104402,-0.172
 186343|C,0,2.766497718,-1.218393387,0.73798995|C,0,1.960677768,-1.2183
 93387,-1.533552519|C,0,3.993440312,-1.716680436,0.303080956|C,0,3.1874
 03811,-1.716680436,-1.969071953|C,0,4.209755316,-1.968226822,-1.052701
 314|H,0,2.60883219,-1.026275965,1.794728745|H,0,1.172317313,-1.0262759
 65,-2.254692654|H,0,4.781989891,-1.908754245,1.025095008|H,0,3.3446654
 54,-1.908754245,-3.026608479|H,0,5.165626055,-2.356460182,-1.39179236|
 C,0,-2.453602389,2.171183228,0.057646253|C,0,-3.49483943,2.428154551,-
 0.850165696|C,0,-2.68422566,2.428154551,1.419670487|C,0,-4.721774805,2
 .923899586,-0.412341086|C,0,-3.910943196,2.923899586,1.858105078|C,0,-
 4.935688286,3.174162708,0.944059564|H,0,-3.339052934,2.237017216,-1.90
 7360801|H,0,-1.893992235,2.237017216,2.139018845|H,0,-5.512199118,3.11
 499353,-1.132562988|H,0,-4.066324043,3.11499353,2.916097031|H,0,-5.891
 552899,3.560415493,1.285422092||Version=IA32W-G03RevC.02|State=1-A|HF=
 -614.8535845|RMSD=2.860e-006|Dipole=-0.0017484,0.0017559,-0.0003293|PG
 =C01 [X(C12H12O2)]||@


 THE LENGTH OF A MEETING IS PROPORTIONAL TO THE
 SQUARE OF THE PARTICIPANTS.
 Job cpu time:  0 days  0 hours  1 minutes 14.0 seconds.
 File lengths (MBytes):  RWF=     49 Int=      0 D2E=      0 Chk=     10 Scr=      1
 Normal termination of Gaussian 03 at Mon Oct 02 13:25:22 2017.
